ITEM: TIMESTEP
34
ITEM: NUMBER OF ATOMS
5
ITEM: BOX BOUNDS pp pp pp
0 10
0 10
0 10
ITEM: ATOMS id type x y z c_pea 
3 1 4.29784 3.47125 3.74636 -2.57483 
4 1 6.33853 4.51018 4.6302 -2.76122 
5 1 4.13942 5.86538 4.26362 -2.7612 
2 1 4.2555 4.04753 6.13181 -2.76118 
1 1 5.52411 6.14403 6.27106 -2.57483 
