/tmp/LAMMPS-vi7oyw99/data.lammps (written by ASE) 

55 	 atoms 
1  atom types
4.75207 15.24793  xlo xhi
5.100932757214063 14.899067242785936  ylo yhi
4.277768607271212 15.722231392728787  zlo zhi


Atoms 

     1   1 6.465980000 13.360567243 9.337518607
     2   1 10.464430000 12.847667243 11.869218607
     3   1 14.459430000 13.624467243 10.781118607
     4   1 12.021230000 13.967667243 10.077418607
     5   1 13.253330000 10.015567243 12.922918607
     6   1 12.828730000 11.345267243 10.579818607
     7   1 15.247930000 11.469667243 11.998718607
     8   1 9.215480000 14.232167243 9.823318607
     9   1 12.964130000 12.752667243 12.840018607
    10   1 7.901310000 9.250657243 11.095418607
    11   1 11.322730000 8.501477243 13.791418607
    12   1 6.167730000 10.059667243 12.835918607
    13   1 12.326930000 8.048637243 11.201318607
    14   1 8.389410000 11.618567243 13.143318607
    15   1 5.697830000 10.816967243 10.064118607
    16   1 7.084790000 7.241307243 12.626918607
    17   1 8.755000000 9.138457243 13.765518607
    18   1 8.297370000 11.820467243 10.416118607
    19   1 5.175030000 8.269137243 10.957918607
    20   1 9.785080000 7.248387243 12.030418607
    21   1 5.739030000 5.595017243 11.108018607
    22   1 10.503330000 10.074867243 11.554718607
    23   1 10.970030000 11.136167243 13.964118607
    24   1 6.247330000 12.595867243 11.922318607
    25   1 11.177630000 11.594867243 9.220018607
    26   1 13.909930000 10.676067243 9.320998607
    27   1 12.900730000 12.383567243 7.366088607
    28   1 11.721830000 8.873807243 10.290118607
    29   1 13.598730000 7.511367243 9.219468607
    30   1 11.318630000 6.047407243 10.032618607
    31   1 14.262930000 9.087167243 11.373518607
    32   1 8.349010000 14.071567243 5.114068607
    33   1 11.027330000 10.905067243 6.161628607
    34   1 8.981330000 12.352967243 7.426128607
    35   1 10.732930000 7.316097243 7.720458607
    36   1 5.131460000 8.096697243 7.761298607
    37   1 9.147730000 8.864667243 5.674468607
    38   1 7.725250000 7.607077243 7.951058607
    39   1 10.828730000 13.596667243 5.975388607
    40   1 9.580730000 9.693367243 8.301018607
    41   1 12.471430000 9.369877243 7.626368607
    42   1 8.902830000 11.531067243 4.788728607
    43   1 6.562850000 7.777427243 5.546628607
    44   1 4.752070000 10.058397243 5.883348607
    45   1 9.070730000 5.371757243 8.640908607
    46   1 8.866730000 6.268927243 6.057778607
    47   1 6.854440000 6.126227243 10.074218607
    48   1 7.122430000 10.210627243 7.082458607
    49   1 6.903400000 9.947937243 4.277768607
    50   1 6.196530000 14.899067243 6.459308607
    51   1 6.333130000 12.331367243 5.450608607
    52   1 8.465675389 14.447826528 5.510700483
    53   1 7.599159027 12.642243092 15.722231393
    54   1 6.017738358 8.207695788 13.015728289
    55   1 9.978494267 5.100932757 13.947246756
