ITEM: TIMESTEP
172
ITEM: NUMBER OF ATOMS
55
ITEM: BOX BOUNDS ss ss ss
4.00177 15.0853
5.33529 15.1564
4.96547 14.0902
ITEM: ATOMS id type x y z c_pea 
36 1 5.6471 7.78528 7.89716 -3.5649 
38 1 8.41056 7.59147 8.51096 -3.61922 
43 1 7.45636 7.54034 5.90767 -3.345 
46 1 9.21017 5.70358 6.94778 -3.1247 
49 1 5.68811 9.51564 5.75006 -3.16728 
48 1 7.69772 9.97412 7.53471 -3.80931 
47 1 7.04995 5.41036 8.58195 -3.21945 
37 1 9.91504 8.45352 6.27054 -3.54309 
35 1 11.1817 7.08891 8.28128 -3.62295 
41 1 12.3868 9.31437 7.32921 -3.42069 
40 1 10.205 10.0456 8.76103 -3.96478 
29 1 13.8057 7.5199 8.86726 -3.16676 
32 1 8.67482 12.9451 5.21683 -3.19849 
34 1 8.93897 12.4617 7.80708 -3.75599 
42 1 8.14722 10.2613 4.96661 -3.32576 
44 1 5.08869 10.504 8.22267 -3.53484 
50 1 7.33906 14.4635 7.14317 -3.21673 
51 1 6.41107 12.0805 6.34409 -3.4665 
1 1 5.55376 13.1328 8.76853 -3.3464 
52 1 9.63145 15.1554 8.27644 -3.19551 
27 1 12.1338 11.9807 8.09767 -3.64404 
33 1 10.5177 11.0596 6.04347 -3.51034 
39 1 10.8981 13.777 6.48491 -3.22111 
4 1 12.1015 14.4901 8.89601 -3.22803 
26 1 14.1525 10.2662 9.10249 -3.44681 
10 1 6.84135 8.97774 10.2549 -3.91666 
19 1 4.00282 8.6933 9.91486 -3.1521 
21 1 5.25916 6.50007 10.2363 -3.16913 
16 1 7.59067 6.33139 11.2636 -3.4826 
17 1 8.0438 8.4219 12.9378 -3.53823 
54 1 5.3575 8.36694 12.2363 -3.21687 
45 1 9.58811 5.33627 9.73514 -3.42215 
13 1 12.6732 7.32785 12.7755 -3.21018 
28 1 12.1736 8.85613 10.4713 -3.73735 
30 1 12.0903 6.09748 10.5978 -3.34987 
31 1 14.6335 8.36961 11.2358 -3.22148 
20 1 9.73529 7.94393 10.7688 -3.67752 
55 1 10.1533 6.24721 12.5772 -3.22117 
11 1 10.702 9.00089 13.2709 -3.53239 
5 1 13.1601 10.0219 12.9654 -3.4593 
8 1 7.6744 14.3913 9.88944 -3.40871 
15 1 4.76446 11.0052 10.8215 -3.37106 
18 1 7.40206 11.6337 9.91869 -3.83722 
22 1 9.42194 10.5735 11.4382 -3.85285 
12 1 6.72416 10.7974 12.5822 -3.541 
14 1 8.46478 12.9782 12.3472 -3.45135 
24 1 5.9214 13.2614 11.5254 -3.16313 
53 1 8.88909 10.8354 14.0891 -3.15964 
2 1 12.0534 14.1685 11.5481 -3.19551 
3 1 14.0858 13.0619 10.0009 -3.28876 
6 1 12.1886 11.4664 10.8014 -3.73364 
25 1 10.089 13.0817 10.1524 -3.75587 
7 1 15.0842 10.9836 11.4005 -3.16927 
9 1 13.7163 12.6813 12.7828 -3.14102 
23 1 11.0491 12.0678 13.1507 -3.48244 
