ITEM: TIMESTEP
158
ITEM: NUMBER OF ATOMS
55
ITEM: BOX BOUNDS ss ss ss
3.88058 15.694
5.76766 14.5968
5.44479 14.9402
ITEM: ATOMS id type x y z c_pea 
38 1 6.13199 7.35883 7.36854 -3.14729 
45 1 4.53047 7.13342 9.32739 -3.12831 
49 1 7.23589 9.61979 6.76972 -3.41321 
51 1 6.95696 6.10301 9.57515 -3.28129 
52 1 6.66226 9.0483 9.74993 -3.9612 
53 1 4.77577 9.63646 8.00909 -3.30611 
36 1 9.87579 9.01925 6.20833 -3.43384 
43 1 8.68124 7.71737 8.27995 -3.64215 
48 1 9.90422 5.7686 9.57798 -3.23011 
39 1 11.4857 10.1008 8.13624 -3.8532 
40 1 11.3921 7.30539 7.87307 -3.47397 
29 1 13.8741 8.52677 8.31392 -3.44938 
34 1 12.604 8.7521 5.96323 -3.15847 
28 1 12.8273 6.91472 10.1398 -3.39118 
4 1 6.43957 14.031 10.0254 -3.23385 
44 1 6.67774 11.8681 8.08846 -3.48532 
42 1 4.94944 11.5696 9.97659 -3.40598 
32 1 8.86732 13.3576 8.54882 -3.53349 
33 1 9.05133 11.6107 6.43728 -3.39138 
46 1 8.92083 10.4259 8.88569 -3.85993 
7 1 11.4793 14.4979 9.50891 -3.33091 
31 1 11.4941 11.0324 5.44571 -3.16138 
35 1 11.28 12.7548 7.4401 -3.45258 
2 1 15.3978 10.5226 9.0577 -3.29904 
14 1 13.2363 12.3551 9.26096 -3.65832 
30 1 13.7387 11.0085 6.95823 -3.34145 
54 1 15.6929 13.1263 9.43427 -2.83261 
20 1 7.31686 8.55058 13.806 -3.26646 
47 1 3.88169 9.21984 10.554 -3.14242 
50 1 5.73097 7.4584 11.7439 -3.35561 
17 1 5.69728 10.1151 12.2406 -3.53367 
15 1 8.53651 9.71265 11.8557 -3.81038 
37 1 10.5318 8.35754 10.3828 -3.93731 
41 1 8.37639 6.98024 11.563 -3.57593 
23 1 9.98974 7.81073 13.5722 -3.50859 
27 1 10.9638 5.99515 11.8831 -3.17179 
24 1 11.1093 10.1464 12.5394 -3.7411 
3 1 14.9596 8.66034 11.0908 -3.21672 
16 1 11.9232 9.09844 14.9392 -3.16046 
18 1 12.7161 7.8539 12.6156 -3.51044 
9 1 13.842 10.1483 13.3228 -3.41559 
10 1 12.8994 9.95873 10.5123 -3.81472 
19 1 7.30457 11.5495 13.7419 -3.42341 
22 1 7.66703 11.9996 10.8923 -3.84188 
26 1 5.31707 12.8119 12.2399 -3.15266 
55 1 7.42405 14.0895 12.7622 -3.14598 
1 1 10.6167 12.0644 10.3638 -3.97649 
21 1 9.40718 10.229 14.6782 -3.42425 
12 1 9.08973 14.5296 10.8696 -3.39499 
5 1 9.7277 12.5783 12.9725 -3.72086 
8 1 11.3912 14.5959 12.1084 -3.14876 
25 1 11.7553 11.6766 14.6551 -3.16985 
6 1 13.8729 14.3305 10.8888 -3.1273 
11 1 15.1212 11.5814 11.4207 -3.37182 
13 1 12.7097 12.3973 12.2377 -3.59882 
