/tmp/LAMMPS-ojshcmgr/data.lammps (written by ASE) 

55 	 atoms 
1  atom types
4.714090000000001 15.28591  xlo xhi
5.413930000000001 14.58607  ylo yhi
5.095795000000002 14.904204999999997  zlo zhi


Atoms 

     1   1 11.249510000 5.693810000 11.983205000
     2   1 11.096010000 10.242220000 11.588005000
     3   1 12.351310000 10.746810000 13.802005000
     4   1 9.881270000 14.586070000 14.205205000
     5   1 11.882710000 8.066560000 13.235805000
     6   1 12.089010000 7.833370000 10.395505000
     7   1 12.583110000 14.493470000 10.597405000
     8   1 8.410610000 5.557490000 11.576905000
     9   1 9.537780000 6.812450000 13.659105000
    10   1 10.162330000 11.994670000 14.904205000
    11   1 13.364110000 11.880470000 11.187505000
    12   1 13.842610000 6.620800000 12.082305000
    13   1 13.874710000 9.353300000 11.813405000
    14   1 11.813410000 13.217870000 12.913205000
    15   1 13.270010000 12.859670000 8.691065000
    16   1 14.658410000 10.269570000 9.253065000
    17   1 14.832010000 7.674360000 9.779105000
    18   1 12.875610000 8.086980000 7.719605000
    19   1 10.148570000 8.076040000 8.379625000
    20   1 12.012810000 10.385150000 9.004995000
    21   1 13.668210000 10.910670000 6.857615000
    22   1 15.285910000 8.586500000 7.046595000
    23   1 13.748710000 6.576230000 5.530445000
    24   1 9.391200000 7.888160000 11.101505000
    25   1 13.106510000 5.413930000 9.814105000
    26   1 11.126910000 7.429200000 5.557015000
    27   1 11.983210000 5.545350000 7.339025000
    28   1 14.731410000 5.979580000 7.787265000
    29   1 10.344130000 5.526340000 9.497905000
    30   1 13.378410000 9.021890000 5.095795000
    31   1 9.583770000 12.767670000 10.909705000
    32   1 7.156780000 7.791100000 11.217705000
    33   1 8.396410000 10.204770000 10.960905000
    34   1 5.885160000 10.066870000 12.247605000
    35   1 6.828850000 11.333170000 14.243105000
    36   1 6.983800000 12.607570000 11.956205000
    37   1 9.179690000 13.144170000 6.145255000
    38   1 4.714090000 11.888170000 10.689405000
    39   1 9.812010000 11.425570000 8.457315000
    40   1 5.650040000 9.654780000 9.602035000
    41   1 5.962140000 7.169300000 8.792485000
    42   1 7.238730000 12.003770000 9.272715000
    43   1 9.978410000 7.937270000 6.705655000
    44   1 7.639810000 14.573770000 10.158065000
    45   1 9.626850000 14.159170000 8.482765000
    46   1 8.555930000 6.679680000 8.982245000
    47   1 11.659410000 12.669270000 7.006575000
    48   1 9.733510000 10.603670000 5.819915000
    49   1 4.945970000 11.742170000 7.929775000
    50   1 7.393530000 6.850030000 6.577815000
    51   1 5.582750000 9.131000000 6.914535000
    52   1 7.953110000 9.283230000 8.113645000
    53   1 7.734080000 9.020540000 5.308955000
    54   1 7.163810000 11.403970000 6.481795000
    55   1 5.255780000 13.985370000 9.417705000
