ITEM: TIMESTEP
100
ITEM: NUMBER OF ATOMS
55
ITEM: BOX BOUNDS ss ss ss
4.68191 15.4295
5.50469 14.4657
4.96808 14.1602
ITEM: ATOMS id type x y z c_pea 
41 1 5.56462 7.4775 8.78045 -3.15744 
43 1 9.4694 5.85872 6.92471 -3.18438 
46 1 7.93022 6.42877 9.21966 -3.52216 
50 1 7.41538 7.43007 6.7648 -3.29485 
51 1 5.74487 9.51931 7.01924 -3.31125 
52 1 7.67278 9.25165 8.89476 -3.87117 
53 1 8.70733 9.65977 6.23586 -3.51417 
18 1 12.9997 8.30886 7.56955 -3.77386 
19 1 10.1699 8.18301 8.05386 -3.9143 
22 1 15.4285 8.58942 6.85433 -3.26128 
23 1 13.7075 6.7174 5.41159 -3.12583 
26 1 11.0827 7.65601 5.55612 -3.42423 
27 1 12.0728 5.7545 7.35094 -3.4613 
28 1 14.7544 6.05396 7.66308 -3.16419 
29 1 10.4529 5.67467 9.52314 -3.5395 
30 1 13.4077 9.16687 4.96906 -3.14557 
37 1 9.55692 12.3184 6.15602 -3.16766 
39 1 9.75111 11.1042 8.69813 -3.97826 
45 1 8.89773 13.6458 8.46783 -3.49535 
49 1 4.68297 11.8048 8.01481 -3.15587 
54 1 7.20386 11.7679 7.04184 -3.4972 
55 1 6.11878 13.9368 8.24424 -3.13307 
48 1 11.3468 10.2889 6.33822 -3.65366 
15 1 14.063 12.8091 8.74507 -3.16127 
16 1 15.1137 10.3097 9.09008 -3.37191 
20 1 12.4677 10.6073 9.01153 -3.82873 
21 1 14.0203 11.0155 6.737 -3.419 
47 1 11.804 12.7944 7.3256 -3.36466 
40 1 5.01673 9.86531 9.70579 -3.42283 
8 1 8.59794 5.9967 11.7891 -3.15362 
9 1 8.79549 8.21549 13.334 -3.38123 
24 1 9.60014 8.20595 10.7808 -3.80385 
32 1 6.80987 8.10297 11.2819 -3.58596 
17 1 14.9276 7.71165 9.63758 -3.44655 
25 1 13.2062 5.50561 9.83674 -3.34552 
1 1 11.2501 6.00491 11.9945 -3.31648 
5 1 11.6562 8.41503 12.9446 -3.56274 
6 1 12.1743 7.95359 10.1456 -3.80126 
12 1 13.789 6.87566 12.045 -3.16421 
13 1 13.961 9.5024 11.4989 -3.51978 
42 1 7.08676 11.811 9.74889 -3.78993 
4 1 8.94855 12.6814 13.8126 -3.1645 
31 1 9.205 13.073 11.1672 -3.61901 
33 1 8.39027 10.4936 11.7476 -3.8204 
34 1 5.64771 10.429 12.1422 -3.29575 
35 1 7.43177 10.4941 14.1592 -3.16854 
36 1 6.6937 12.7574 12.5251 -3.39157 
38 1 4.80336 12.6984 10.534 -3.25827 
44 1 7.00431 14.4647 10.5232 -3.14425 
2 1 11.122 10.6343 11.3404 -3.8912 
3 1 12.8413 10.8091 13.5318 -3.17225 
7 1 11.5197 13.1635 9.90445 -3.52464 
10 1 10.2064 10.4586 13.992 -3.43934 
11 1 13.6083 12.0928 11.2356 -3.39299 
14 1 11.4135 12.8756 12.7723 -3.30446 
