/tmp/LAMMPS-abzwjsds/data.lammps (written by ASE) 

55 	 atoms 
1  atom types
5.012293720455649 14.987706279544351  xlo xhi
5.335664621115787 14.664335378884214  ylo yhi
4.923663001934932 15.076336998065068  zlo zhi


Atoms 

     1   1 14.467769461 7.464635179 7.091571488
     2   1 12.244008398 6.882888679 12.777372808
     3   1 11.920577139 12.043899041 11.005525497
     4   1 13.003904942 11.867481028 12.233533724
     5   1 7.340279926 6.023749035 13.855542709
     6   1 8.470490576 9.615437629 12.938173020
     7   1 13.423660749 10.416193757 8.789486321
     8   1 9.681008157 6.994836147 9.915678736
     9   1 11.770179465 12.345360950 6.080936829
    10   1 12.040003311 5.335664621 10.083731841
    11   1 12.899485945 6.938944972 12.239688261
    12   1 5.782459003 12.211959418 8.948522992
    13   1 7.579618448 9.128377205 13.603572542
    14   1 10.152777592 8.609475154 4.923663002
    15   1 9.155590275 6.493283466 15.076336998
    16   1 9.530304612 6.688801919 7.966065203
    17   1 6.061741575 9.819843806 5.998304646
    18   1 9.199053282 10.632340246 13.215334341
    19   1 13.422489130 7.710703848 8.577545273
    20   1 8.424756493 12.223900577 11.008880434
    21   1 13.155514524 8.695870218 7.325058609
    22   1 10.078016599 12.541758641 13.870756143
    23   1 7.275165958 9.538078171 14.219756369
    24   1 12.477994889 14.664335379 10.698704620
    25   1 7.713383156 14.202837894 8.182720346
    26   1 6.786523572 10.577075521 9.832683564
    27   1 8.410718338 11.644926590 14.621576929
    28   1 9.917657798 6.805987085 11.651258886
    29   1 9.068282076 13.865050958 11.049899200
    30   1 10.826620987 6.090468168 12.781177177
    31   1 8.270899550 12.267294443 12.561933912
    32   1 9.921621497 6.085026227 6.911966576
    33   1 13.825392599 5.341877191 9.681977184
    34   1 7.747722347 9.599374585 10.065708229
    35   1 5.082708136 7.057344299 11.730816253
    36   1 6.495975743 9.430720134 14.337603010
    37   1 7.897626457 6.989606726 9.652112327
    38   1 6.185919550 11.713610032 14.015163079
    39   1 7.931151631 12.608134274 7.533203780
    40   1 13.937282613 10.845212139 14.883664005
    41   1 12.216579776 8.263960111 7.640462052
    42   1 8.319726851 12.617491405 7.126356111
    43   1 12.014473933 10.992635761 13.534201271
    44   1 11.272253525 9.782903010 14.242417151
    45   1 13.087927715 11.379036756 14.022818978
    46   1 5.012293720 7.078002081 8.763610547
    47   1 7.563196985 13.434121587 13.227159501
    48   1 8.174943777 14.137719394 12.036253097
    49   1 5.250379223 8.845552453 10.172563926
    50   1 14.987706280 5.973680672 10.968008941
    51   1 12.199930218 5.602948507 12.483391564
    52   1 14.930227287 10.553347399 13.489959217
    53   1 10.913002681 12.692077799 14.925801243
    54   1 13.510240646 10.299058305 9.111990293
    55   1 14.714891084 12.645907146 10.051265843
