/tmp/LAMMPS-86utueu7/data.lammps (written by ASE) 

55 	 atoms 
1  atom types
4.234871263409338 15.765128736590661  xlo xhi
4.536400000000002 15.463599999999998  ylo yhi
4.39408427293634 15.60591572706366  zlo zhi


Atoms 

     1   1 10.416221263 14.121600000 12.469315727
     2   1 10.602321263 9.459180000 12.980215727
     3   1 8.129061263 6.981810000 12.545015727
     4   1 12.152121263 11.871300000 12.502715727
     5   1 10.186921263 5.087800000 12.607715727
     6   1 6.214091263 11.313600000 12.121415727
     7   1 13.327421263 9.440130000 12.636215727
     8   1 10.280221263 7.565050000 10.865815727
     9   1 12.447821263 8.277720000 14.921215727
    10   1 10.109421263 12.042200000 14.266415727
    11   1 5.992111263 8.733990000 13.138715727
    12   1 12.343621263 10.778300000 14.906215727
    13   1 9.417521263 11.890500000 11.383915727
    14   1 12.232721263 6.863620000 12.651515727
    15   1 10.048421263 9.535120000 15.605915727
    16   1 7.762631263 7.944210000 15.090415727
    17   1 8.261921263 5.181920000 14.564515727
    18   1 7.914671263 13.196100000 13.224115727
    19   1 8.013201263 10.441400000 14.014115727
    20   1 8.174921263 9.486390000 11.472615727
    21   1 10.191821263 7.046070000 14.479915727
    22   1 5.446081263 6.588110000 11.442715727
    23   1 7.064231263 4.536400000 12.224915727
    24   1 8.208631263 15.463600000 11.837315727
    25   1 5.935071263 6.205970000 14.062015727
    26   1 12.349021263 9.574800000 10.298265727
    27   1 11.822821263 12.170700000 9.230925727
    28   1 9.456921263 13.326100000 10.094935727
    29   1 7.125881263 13.587200000 8.730305727
    30   1 12.250521263 6.458250000 7.052415727
    31   1 10.827921263 8.278960000 8.431235727
    32   1 11.411321263 10.696800000 7.164715727
    33   1 9.809821263 10.475900000 9.709825727
    34   1 13.286421263 8.929030000 7.563255727
    35   1 7.956911263 8.243390000 8.811705727
    36   1 6.003881263 9.398500000 7.158985727
    37   1 7.287591263 10.969800000 8.936855727
    38   1 7.166641263 11.787300000 6.372325727
    39   1 8.873221263 9.663400000 6.725325727
    40   1 11.219621263 8.470980000 5.741195727
    41   1 5.068761263 12.075400000 7.801475727
    42   1 9.405021263 12.365400000 7.619475727
    43   1 13.266621263 7.178510000 9.466145727
    44   1 6.781641263 6.656200000 7.094315727
    45   1 8.462321263 5.457920000 9.012735727
    46   1 11.073821263 5.710570000 9.369875727
    47   1 9.450521263 6.722230000 6.797575727
    48   1 5.464311263 12.245100000 10.561025727
    49   1 4.234871263 10.070500000 9.231045727
    50   1 5.874741263 5.030980000 9.123425727
    51   1 5.191051263 7.523620000 9.090335727
    52   1 9.692424235 5.144918432 4.394084273
    53   1 5.591634772 12.590878365 7.257857063
    54   1 15.765128737 5.932580431 8.739289541
    55   1 15.202244282 9.833167102 9.958317426
