ITEM: TIMESTEP
162
ITEM: NUMBER OF ATOMS
55
ITEM: BOX BOUNDS ss ss ss
4.51031 14.5567
4.86335 13.6942
3.71101 14.7233
ITEM: ATOMS id type x y z c_pea 
44 1 8.18168 6.39796 5.72553 -3.40265 
46 1 9.38793 7.45993 3.71219 -3.20725 
48 1 6.37362 6.87716 7.48839 -3.46483 
36 1 8.27481 9.07881 6.7744 -3.72704 
37 1 7.05522 8.6501 4.57458 -3.19177 
18 1 9.14758 7.10097 8.53595 -3.80874 
19 1 7.94232 4.86457 8.56497 -3.22073 
23 1 4.51136 7.96078 8.97839 -3.16386 
45 1 10.0364 4.96287 6.74735 -3.33228 
31 1 12.5793 5.51522 7.11931 -3.43019 
32 1 10.6514 7.78484 6.2452 -3.82861 
35 1 13.3194 7.79996 5.87138 -3.38752 
49 1 11.4823 5.95387 4.61937 -3.19488 
51 1 14.5556 7.0934 8.13354 -3.16153 
41 1 11.7708 8.52563 3.8223 -3.15713 
2 1 11.8594 7.52312 8.85131 -3.83496 
39 1 7.25115 11.3248 5.52659 -3.41238 
40 1 9.53226 9.9731 4.52685 -3.46822 
42 1 5.61016 9.49992 6.88884 -3.53725 
30 1 7.59003 13.6889 7.42287 -3.21786 
50 1 5.38042 12.2271 7.16527 -3.18104 
38 1 7.69668 11.3227 8.33806 -3.85305 
33 1 11.9288 10.2814 5.87518 -3.48117 
34 1 10.4732 9.84986 8.22265 -3.87023 
28 1 12.1273 11.9618 8.12546 -3.38695 
43 1 9.7248 11.895 6.48798 -3.55445 
27 1 13.4778 9.53948 7.97989 -3.44665 
55 1 10.0701 13.5586 8.52556 -3.3067 
9 1 8.89498 6.04621 11.0265 -3.49643 
22 1 7.14403 8.75799 9.3774 -3.83633 
24 1 6.35057 6.39886 10.2275 -3.35058 
21 1 5.06928 8.92193 11.3993 -3.41371 
53 1 8.14673 8.83853 14.7221 -2.99874 
8 1 7.50441 8.17012 12.1798 -3.66383 
1 1 10.7349 4.92213 9.29026 -3.44498 
7 1 11.5988 6.42753 11.4081 -3.47523 
25 1 13.3862 5.38903 9.71851 -3.15905 
10 1 9.96495 8.71977 10.8849 -3.96118 
52 1 13.8346 7.96376 10.5571 -3.30106 
16 1 9.87603 7.43035 13.3095 -3.37743 
17 1 12.1915 8.74666 12.596 -3.36448 
12 1 7.11288 10.891 10.9718 -3.7067 
20 1 4.82343 10.5952 9.25619 -3.52492 
14 1 6.99519 12.8747 12.6078 -3.24566 
26 1 8.13779 13.6929 10.2503 -3.40726 
47 1 5.73676 13.0625 9.70037 -3.36253 
11 1 6.25172 10.3119 13.5109 -3.30582 
13 1 4.69789 11.6511 11.796 -3.1638 
15 1 8.95389 10.6145 12.9542 -3.68075 
6 1 12.3777 10.2817 10.3232 -3.65231 
4 1 11.7835 13.0876 10.5934 -3.18434 
29 1 9.78571 11.4447 10.3107 -3.78742 
5 1 11.5357 11.3418 12.666 -3.35749 
54 1 10.6962 9.56883 14.5949 -3.02417 
3 1 9.67465 13.2351 12.3483 -3.22224 
