/var/folders/35/zn93tsdx7p13vbrdj0l0gn9r0000gn/T/LAMMPS-tne9b87j/data.lammps (written by ASE) 

55 	 atoms 
1  atom types
0.0 20.000000000  xlo xhi
0.0 20.000000000  ylo yhi
0.0 20.000000000  zlo zhi


Atoms 

     1   1 7.027533636 7.113019545 10.459688909
     2   1 10.908773636 5.577699545 11.000388909
     3   1 13.381573636 6.152219545 11.369988909
     4   1 5.918733636 9.550429545 10.770488909
     5   1 8.045733636 11.189379545 10.245188909
     6   1 11.545473636 10.480679545 11.664788909
     7   1 9.173493636 8.824059545 11.165188909
     8   1 11.893973636 8.132469545 10.280888909
     9   1 13.913973636 10.352679545 10.250588909
    10   1 14.556473636 7.781339545 9.781348909
    11   1 5.813843636 12.403079545 10.904788909
    12   1 10.764173636 14.517779545 11.593788909
    13   1 8.173403636 13.942879545 11.033888909
    14   1 10.509973636 12.474779545 9.927648909
    15   1 13.064273636 12.910379545 10.952188909
    16   1 11.197673636 7.688339545 12.882188909
    17   1 8.846353636 6.384679545 12.347288909
    18   1 7.127553636 8.224449545 12.935388909
    19   1 6.880393636 10.809379545 12.896988909
    20   1 10.464273636 11.731179545 15.216988909
    21   1 9.347063636 9.531269545 13.870288909
    22   1 12.089073636 9.944379545 14.206388909
    23   1 13.994473636 11.211579545 12.828288909
    24   1 13.728873636 8.607349545 12.358188909
    25   1 7.994063636 11.886479545 15.021188909
    26   1 6.922473636 13.440579545 13.223988909
    27   1 9.387093636 11.912279545 12.554988909
    28   1 9.433653636 14.050879545 13.976388909
    29   1 11.910073636 12.800979545 13.366288909
    30   1 7.366766364 7.212355000 6.378991091
    31   1 9.638376364 6.679985000 7.671631091
    32   1 12.117466364 7.736665000 7.145601091
    33   1 5.443526364 9.581765000 6.539691091
    34   1 6.910016364 11.771525000 5.652261091
    35   1 7.499616364 9.349555000 4.783011091
    36   1 5.781546364 11.979025000 7.912611091
    37   1 9.880166364 8.533005000 5.752771091
    38   1 9.482156364 11.173925000 5.630201091
    39   1 7.860216364 9.611855000 7.465651091
    40   1 12.028166364 10.328725000 6.212111091
    41   1 13.248466364 11.995625000 7.911981091
    42   1 8.505736364 13.832625000 6.233581091
    43   1 11.033366364 12.893625000 6.961621091
    44   1 5.685126364 7.566905000 8.290301091
    45   1 7.359656364 5.706115000 8.978791091
    46   1 8.382056364 8.044065000 9.652271091
    47   1 11.923966364 5.296775000 8.097571091
    48   1 13.781366364 6.864695000 9.296741091
    49   1 5.975816364 9.847335000 9.508421091
    50   1 10.490166364 9.797655000 8.276281091
    51   1 8.570566364 12.121125000 8.187901091
    52   1 13.305366364 9.494735000 8.702561091
    53   1 7.100406364 14.247925000 8.547011091
    54   1 9.822666364 14.703225000 8.480181091
    55   1 12.590666364 14.208825000 9.201891091
