/var/folders/35/zn93tsdx7p13vbrdj0l0gn9r0000gn/T/LAMMPS-juhqq2oz/data.lammps (written by ASE) 

55 	 atoms 
1  atom types
0.0 20.000000000  xlo xhi
0.0 20.000000000  ylo yhi
0.0 20.000000000  zlo zhi


Atoms 

     1   1 11.163666636 7.659815909 5.666939455
     2   1 8.737096636 7.778775909 6.816899455
     3   1 10.692766636 5.998935909 7.738609455
     4   1 13.143066636 7.189655909 7.595039455
     5   1 8.095326636 12.294785909 5.599959455
     6   1 7.042476636 10.061705909 6.730869455
     7   1 9.771596636 10.144055909 5.913719455
     8   1 9.677876636 12.260385909 7.776749455
     9   1 11.198966636 8.852865909 7.906869455
    10   1 12.233166636 11.227685909 7.042639455
    11   1 10.715566636 12.616285909 5.265489455
    12   1 7.172326636 6.201995909 10.567239455
    13   1 6.737546636 8.004205909 8.678099455
    14   1 8.109186636 5.621125909 8.264589455
    15   1 9.703566636 5.000045909 10.372639455
    16   1 9.550356636 7.493105909 9.792009455
    17   1 12.381766636 5.633845909 9.752659455
    18   1 12.359666636 8.219615909 10.395139455
    19   1 14.784166636 7.301765909 9.533509455
    20   1 13.952666636 6.450475909 11.820039455
    21   1 7.523856636 8.970715909 11.246639455
    22   1 6.091816636 10.571725909 9.587589455
    23   1 8.682496636 9.873975909 8.726669455
    24   1 11.184266636 10.887285909 9.641519455
    25   1 14.876266636 9.066915909 11.554639455
    26   1 13.892366636 9.912205909 9.032389455
    27   1 11.240066636 6.403075909 12.160039455
    28   1 8.697926636 6.880655909 12.487739455
    29   1 10.913235000 14.999954091 7.129900545
    30   1 14.017435000 13.342154091 7.108160545
    31   1 7.374305000 10.844654091 11.542910545
    32   1 4.910165000 11.310454091 11.324210545
    33   1 8.940575000 11.974654091 9.066500545
    34   1 11.435635000 11.879654091 10.648310545
    35   1 15.062435000 10.150484091 10.802710545
    36   1 6.665905000 13.199154091 9.983110545
    37   1 9.072685000 13.160354091 11.621210545
    38   1 8.361035000 14.601654091 8.278960545
    39   1 10.447835000 14.475154091 9.765650545
    40   1 14.029035000 12.681954091 9.781780545
    41   1 12.416235000 14.215954091 11.504510545
    42   1 12.900735000 14.923454091 8.897300545
    43   1 12.899435000 8.376174091 14.379510545
    44   1 8.003595000 9.439884091 14.160310545
    45   1 5.962855000 11.254354091 13.981910545
    46   1 5.580595000 9.065074091 12.798610545
    47   1 10.635635000 10.110034091 14.713910545
    48   1 8.585755000 12.001054091 13.990910545
    49   1 11.245135000 12.437654091 13.316010545
    50   1 9.860335000 10.230774091 12.117310545
    51   1 13.049635000 11.042954091 14.734510545
    52   1 15.089835000 10.052544091 13.561410545
    53   1 12.635435000 9.722034091 12.166810545
    54   1 13.876735000 12.161254091 12.410810545
    55   1 6.520635000 13.272354091 12.581710545
