ITEM: TIMESTEP
120
ITEM: NUMBER OF ATOMS
55
ITEM: BOX BOUNDS pp pp pp
0 20
0 20
0 20
ITEM: ATOMS id type x y z c_pea 
1 1 10.4549 6.44694 6.1674 -3.13689 
3 1 12.4328 5.47685 7.35172 -3.13211 
4 1 12.9472 7.96449 6.08937 -3.24278 
7 1 7.93044 9.90939 5.68654 -3.17691 
2 1 10.4332 8.99271 5.56566 -3.39214 
8 1 9.97546 11.6464 5.2535 -3.20802 
9 1 9.35473 10.8933 7.70957 -3.85201 
14 1 8.87463 8.08421 7.65122 -3.63921 
11 1 12.0669 10.6371 6.80436 -3.56036 
5 1 6.91532 12.0653 6.95382 -3.34735 
6 1 9.0153 13.6172 6.72952 -3.3051 
10 1 11.5424 13.2739 6.97728 -3.35622 
29 1 7.35544 7.36717 9.65916 -3.37177 
28 1 8.32928 5.59699 11.2665 -3.12965 
15 1 9.9292 5.61902 8.78688 -3.46878 
31 1 10.7222 4.94354 11.6161 -3.11814 
33 1 10.2059 7.46029 10.6251 -3.82937 
16 1 11.5456 7.9536 8.217 -3.77283 
17 1 14.2149 7.12179 8.31948 -3.16073 
18 1 12.4968 5.87003 9.97373 -3.43043 
13 1 6.71048 9.71843 8.14417 -3.51697 
35 1 5.94694 9.59066 10.6456 -3.40434 
34 1 5.1234 11.8479 11.641 -3.15758 
38 1 5.12689 11.8968 8.97097 -3.23363 
21 1 11.399 10.2517 9.54002 -3.83094 
36 1 8.69939 9.739 10.2155 -3.86954 
37 1 12.0229 11.7947 11.6086 -3.65654 
19 1 13.1965 8.47062 10.5894 -3.63613 
22 1 14.4221 10.9409 10.91 -3.35148 
23 1 13.988 9.71185 8.33936 -3.39049 
25 1 7.15325 14.317 8.41518 -3.30961 
40 1 5.64878 14.1091 10.5322 -3.15851 
39 1 7.49124 12.1092 9.98139 -3.87989 
12 1 9.82668 15.328 8.61308 -3.24347 
20 1 10.2752 12.8646 9.36967 -3.88338 
41 1 8.34837 14.6987 10.8089 -3.55486 
48 1 9.46274 12.2671 11.9974 -3.83005 
55 1 11.0351 14.7072 11.2869 -3.52564 
26 1 12.3832 14.7902 9.03934 -3.17731 
24 1 13.1788 12.2848 8.9384 -3.55906 
27 1 13.6393 13.7816 11.2608 -3.26163 
42 1 9.73834 6.83088 13.3995 -3.4117 
32 1 12.2566 6.98352 12.5864 -3.42423 
30 1 7.76521 8.09783 12.2583 -3.5185 
44 1 7.36455 10.7041 12.732 -3.58536 
43 1 11.4742 8.41628 14.7151 -3.17081 
46 1 9.03474 9.46197 14.4622 -3.32209 
47 1 11.3995 11.0992 14.3931 -3.50301 
49 1 10.5741 9.47687 12.3305 -3.87743 
51 1 13.2903 9.58558 13.0644 -3.45519 
52 1 6.99674 13.3783 12.7893 -3.40982 
45 1 8.96332 12.2259 14.5484 -3.27538 
53 1 11.6531 13.6079 13.6372 -3.3526 
54 1 9.25452 14.641 13.394 -3.17349 
50 1 13.918 12.1511 13.3985 -3.14012 
