ITEM: TIMESTEP
190
ITEM: NUMBER OF ATOMS
55
ITEM: BOX BOUNDS ss ss ss
5.26908 13.8943
4.93026 14.754
5.17266 15.3512
ITEM: ATOMS id type x y z c_pea 
3 1 7.49313 8.18887 7.98873 -3.56514 
7 1 9.17969 6.02905 7.86435 -3.41935 
13 1 7.1152 6.27927 9.90752 -3.43823 
54 1 8.75896 7.49996 5.65444 -3.14791 
23 1 9.53446 7.45792 10.1575 -3.73848 
24 1 6.02703 8.93975 10.1101 -3.47616 
12 1 11.2037 6.93363 6.0832 -3.15845 
27 1 11.7156 6.54645 8.64164 -3.46387 
29 1 12.8751 8.59481 7.39219 -3.4005 
45 1 11.6569 9.2798 9.96749 -3.87537 
47 1 10.1094 8.91811 7.71594 -3.8892 
48 1 13.8456 7.9281 9.98196 -3.27905 
38 1 10.7049 9.41593 5.17369 -3.27818 
14 1 8.69494 10.0362 10.0326 -3.9404 
10 1 7.24762 13.4064 8.72161 -3.31783 
15 1 6.66186 10.8259 8.23259 -3.48494 
19 1 7.16935 12.4659 6.15185 -3.13716 
22 1 9.28113 11.7894 7.89794 -3.86987 
25 1 8.15539 10.0365 5.97714 -3.45708 
51 1 8.82361 14.2979 6.66064 -3.15457 
49 1 13.8932 10.5552 8.96278 -3.44508 
40 1 9.83027 14.533 9.10823 -3.39424 
32 1 9.8478 12.0769 5.32943 -3.32078 
34 1 11.5075 12.1487 9.40509 -3.84669 
35 1 11.3654 13.724 7.01131 -3.42448 
43 1 11.9524 11.0576 6.90047 -3.61036 
46 1 12.4246 14.7529 9.38497 -3.16996 
55 1 13.7325 12.9718 7.94545 -3.15746 
2 1 6.08328 7.28678 14.1367 -3.15633 
5 1 5.53443 9.64371 12.7036 -3.41491 
9 1 9.47191 4.93128 10.46 -3.20331 
16 1 7.47557 5.55574 12.4695 -3.30924 
21 1 7.75552 8.18731 12.1479 -3.82826 
26 1 7.11031 9.6497 14.8688 -3.41386 
50 1 5.27019 6.99326 11.7354 -3.14584 
8 1 8.70392 7.42074 14.6197 -3.42448 
18 1 10.0222 5.93291 12.9072 -3.36876 
28 1 11.9154 6.33705 11.1965 -3.38544 
33 1 11.4552 7.51856 14.685 -3.17615 
37 1 10.5279 8.63113 12.5192 -3.86167 
44 1 13.2211 7.96111 12.6935 -3.27415 
30 1 9.91274 9.80686 15.0553 -3.5072 
1 1 6.48426 11.5487 10.9159 -3.49756 
4 1 8.69911 13.508 13.1955 -3.23602 
6 1 8.30814 11.997 15.3502 -3.15688 
11 1 8.53374 10.7714 12.8245 -3.85204 
20 1 8.92799 12.6866 10.7242 -3.64575 
52 1 6.36768 12.0806 13.5752 -3.17838 
17 1 10.7548 12.3576 14.3439 -3.39591 
31 1 11.122 11.235 11.9315 -3.78329 
36 1 13.7268 10.3069 11.6419 -3.50413 
39 1 13.7567 12.8462 10.6801 -3.37217 
41 1 11.2287 13.9121 11.7164 -3.50615 
42 1 12.4309 10.0892 14.1347 -3.4485 
53 1 13.1411 12.5479 13.1957 -3.16957 
