ITEM: TIMESTEP
206
ITEM: NUMBER OF ATOMS
55
ITEM: BOX BOUNDS ss ss ss
5.41065 14.2113
4.71306 15.2023
4.80142 15.535
ITEM: ATOMS id type x y z c_pea 
30 1 9.01905 7.81645 5.68354 -3.32552 
36 1 7.16094 7.33205 7.64174 -3.46532 
41 1 9.09749 5.64066 7.21715 -3.14886 
54 1 7.54284 5.24358 9.40445 -3.33635 
33 1 7.79388 9.93672 6.95989 -3.58518 
44 1 5.94983 9.33842 9.02779 -3.43414 
49 1 5.41151 6.84045 9.68322 -3.15247 
2 1 12.8921 8.97528 7.36028 -3.50105 
43 1 11.3245 8.83474 5.21748 -3.27177 
47 1 11.4486 6.7177 6.98253 -3.2676 
38 1 9.89858 8.44117 8.20595 -3.91477 
55 1 10.1495 6.09564 9.59849 -3.59202 
6 1 14.2104 9.64399 9.94715 -3.22075 
11 1 12.4513 7.56168 9.56055 -3.54418 
32 1 8.5455 12.6792 6.95378 -3.60924 
34 1 9.24076 10.4441 4.80261 -3.15867 
31 1 6.27013 11.7762 8.146 -3.14961 
40 1 8.57826 10.6402 9.54269 -4.00062 
45 1 8.86721 15.2012 8.4542 -3.12009 
53 1 7.61754 13.2709 9.72838 -3.45725 
39 1 10.4297 14.674 6.61917 -3.13004 
52 1 10.3408 12.8736 9.03815 -3.83762 
4 1 12.7867 11.019 5.46129 -3.21317 
21 1 12.4081 13.1088 7.13891 -3.47741 
37 1 10.6037 10.8263 7.06151 -3.8 
50 1 10.6598 12.6041 5.04081 -3.19188 
8 1 11.6 15.1132 9.09949 -3.2719 
17 1 11.7991 10.5 9.4648 -3.82711 
22 1 13.2323 12.8528 9.68333 -3.40335 
23 1 14.1235 11.2109 7.81792 -3.20519 
51 1 7.97813 7.85948 10.2498 -3.89778 
3 1 9.10005 7.17415 12.764 -3.80203 
7 1 9.03419 4.7141 11.6302 -3.36092 
15 1 9.05446 9.07078 14.902 -3.31532 
24 1 8.18112 9.92579 12.4291 -3.84163 
25 1 7.73392 5.02157 14.0172 -3.14918 
35 1 6.88749 7.67904 14.0766 -3.2923 
42 1 5.83741 8.62528 11.7406 -3.3687 
48 1 6.59304 6.00431 11.8864 -3.43961 
28 1 9.07483 6.58677 15.5338 -3.13998 
10 1 11.5709 6.19451 11.8673 -3.44326 
27 1 10.4933 8.81291 11.0894 -3.88486 
20 1 10.3854 4.94608 13.9309 -3.16178 
5 1 11.3645 7.42594 14.2616 -3.34694 
14 1 13.0014 8.49859 12.0932 -3.3717 
16 1 11.1624 9.95088 13.511 -3.56758 
1 1 9.5059 14.7327 10.9821 -3.40765 
46 1 6.23907 11.1958 10.8957 -3.35324 
18 1 9.25055 11.7023 14.3344 -3.31122 
26 1 7.81332 12.8101 12.3583 -3.35748 
13 1 12.9958 11.2358 11.8445 -3.50281 
9 1 10.22 11.8398 11.6398 -3.94938 
12 1 11.9579 13.9695 11.6538 -3.39186 
19 1 11.8345 12.5069 13.912 -3.16124 
29 1 9.888 14.1125 13.4757 -3.13766 
