/var/folders/35/zn93tsdx7p13vbrdj0l0gn9r0000gn/T/LAMMPS-436bomkk/data.lammps (written by ASE) 

55 	 atoms 
1  atom types
0.0 20.000000000  xlo xhi
0.0 20.000000000  ylo yhi
0.0 20.000000000  zlo zhi


Atoms 

     1   1 7.394350818 5.678385000 10.360885909
     2   1 7.105280818 7.727175000 8.635485909
     3   1 10.112120818 5.105635000 11.201885909
     4   1 9.403240818 7.428835000 10.283985909
     5   1 12.771420818 5.886185000 11.769685909
     6   1 7.022130818 8.491495000 11.398185909
     7   1 5.873550818 10.046265000 9.315855909
     8   1 7.620130818 11.238465000 11.154285909
     9   1 4.957330818 10.529665000 11.736285909
    10   1 9.720850818 9.555745000 11.894085909
    11   1 5.342630818 12.676665000 10.461485909
    12   1 7.079910818 12.313765000 8.470885909
    13   1 7.745100818 13.930465000 10.534285909
    14   1 10.264720818 12.259365000 11.373285909
    15   1 10.149320818 14.894365000 10.304785909
    16   1 10.727820818 7.180835000 13.004985909
    17   1 8.213140818 6.379435000 12.663985909
    18   1 6.540670818 10.167065000 13.612385909
    19   1 8.509880818 8.562535000 14.062985909
    20   1 10.957520818 9.660265000 14.402385909
    21   1 8.826100818 11.431665000 13.795085909
    22   1 13.176620818 8.271935000 13.459185909
    23   1 13.353320818 10.826565000 14.633085909
    24   1 12.346220818 10.488765000 12.102285909
    25   1 6.521390818 12.822765000 12.887885909
    26   1 9.040310818 14.009265000 12.907185909
    27   1 11.686420818 14.464465000 12.379385909
    28   1 11.310920818 12.418865000 13.976185909
    29   1 13.699320818 12.722565000 12.567385909
    30   1 6.889729182 7.719096273 7.723474091
    31   1 9.281539182 7.793746273 6.235334091
    32   1 11.821869182 7.062486273 7.822444091
    33   1 11.854269182 8.278136273 5.574284091
    34   1 7.905029182 10.060936273 6.816354091
    35   1 10.307869182 10.398236273 5.366914091
    36   1 14.104169182 8.289696273 7.351264091
    37   1 12.927769182 10.515736273 6.377974091
    38   1 6.595969182 12.398436273 7.317354091
    39   1 9.123819182 12.544936273 6.418434091
    40   1 11.687869182 12.777936273 5.462394091
    41   1 10.704369182 14.599136273 7.159744091
    42   1 13.808569182 12.941336273 7.138004091
    43   1 9.326449182 6.390146273 8.518474091
    44   1 11.649169182 5.326316273 9.786704091
    45   1 13.611769182 7.291976273 9.961254091
    46   1 10.416669182 9.487516273 7.892104091
    47   1 11.387269182 12.139836273 8.053574091
    48   1 14.853569182 9.749666273 10.832554091
    49   1 15.042669182 10.655236273 8.115264091
    50   1 12.754769182 9.738726273 9.171584091
    51   1 8.152169182 14.200836273 8.308804091
    52   1 10.238969182 14.074336273 9.795494091
    53   1 13.820169182 12.281136273 9.811624091
    54   1 12.691869182 14.522636273 8.927144091
    55   1 14.549569182 7.462276273 12.419454091
