ITEM: TIMESTEP
96
ITEM: NUMBER OF ATOMS
55
ITEM: BOX BOUNDS pp pp pp
0 20
0 20
0 20
ITEM: ATOMS id type x y z c_pea 
30 1 7.29323 7.83294 7.88969 -3.39095 
31 1 9.39453 7.66565 6.06452 -3.20288 
32 1 11.9731 7.04196 7.90757 -3.46859 
34 1 7.68865 9.95391 6.35239 -3.43894 
33 1 11.9737 8.54175 5.89748 -3.23472 
35 1 10.1979 10.4116 5.49732 -3.47104 
47 1 11.0343 11.8841 7.79334 -3.85422 
36 1 14.2774 8.6408 7.48321 -3.22736 
37 1 12.981 10.9054 6.12232 -3.42337 
49 1 14.7672 11.2332 7.93029 -3.1702 
38 1 6.28712 12.1972 7.04118 -3.16232 
39 1 8.76435 12.635 6.07518 -3.45567 
40 1 11.334 12.8859 5.25752 -3.16501 
41 1 10.4451 14.4877 7.22041 -3.34651 
42 1 13.1212 13.48 7.15557 -3.31142 
1 1 7.29391 6.31336 10.1236 -3.20341 
3 1 9.61705 5.69152 11.3606 -3.32629 
4 1 10.8038 7.86844 10.4214 -3.86955 
43 1 9.44623 6.34429 8.56868 -3.51131 
44 1 11.7491 5.33431 9.86398 -3.14407 
45 1 13.6689 7.46996 10.0221 -3.53946 
6 1 5.75604 8.34698 10.9022 -3.24071 
7 1 6.03757 10.0908 8.78615 -3.50752 
9 1 5.3184 10.948 11.2646 -3.20699 
46 1 9.94639 9.17237 8.01684 -3.83063 
2 1 8.21372 8.9172 10.1987 -3.83715 
8 1 8.10939 11.5305 11.2221 -3.80207 
12 1 8.3968 11.4189 8.5319 -3.79854 
14 1 10.9264 11.1571 10.7294 -3.93351 
48 1 14.7458 9.91084 10.2646 -3.38051 
50 1 12.4653 9.76171 8.87918 -3.7999 
11 1 6.12635 12.7946 9.65689 -3.397 
13 1 7.65223 14.4645 10.9906 -3.30961 
51 1 7.84709 14.1778 8.13689 -3.35144 
15 1 10.1666 15.5862 11.1609 -2.98967 
52 1 9.85612 13.4549 9.78697 -3.68244 
27 1 11.9633 13.6823 11.7308 -3.44461 
53 1 13.1895 12.4254 9.64395 -3.59986 
54 1 12.0704 14.8701 9.27975 -3.23496 
17 1 7.80202 7.33069 12.5429 -3.48044 
16 1 10.4092 7.13546 13.5412 -3.51125 
5 1 12.5456 6.34881 12.1537 -3.39112 
22 1 12.9559 7.64246 14.4204 -3.16616 
18 1 6.79512 9.81785 13.0641 -3.49514 
10 1 9.58397 9.5203 12.5321 -3.77573 
19 1 8.48049 8.66606 14.8376 -3.15642 
20 1 11.02 9.44965 14.9227 -3.39791 
21 1 8.68453 11.3598 14.2587 -3.39777 
28 1 11.3638 11.6513 13.4861 -3.57678 
55 1 14.7103 8.36401 12.5011 -3.19509 
23 1 13.6067 10.1499 14.3499 -3.15575 
24 1 12.3285 9.199 12.1664 -3.78384 
29 1 13.7272 11.5257 12.1111 -3.37788 
25 1 6.64212 12.7271 12.8895 -3.19463 
26 1 9.42509 13.4524 12.6995 -3.51166 
