ITEM: TIMESTEP
88
ITEM: NUMBER OF ATOMS
55
ITEM: BOX BOUNDS ss ss ss
4.56436 15.193
5.0814 14.6792
5.62746 14.8488
ITEM: ATOMS id type x y z c_pea 
6 1 9.85091 6.95213 6.2977 -3.42814 
10 1 8.77178 8.69486 8.12641 -3.89144 
15 1 7.56779 8.12875 5.67524 -3.15543 
46 1 7.38611 6.44594 7.75155 -3.30893 
54 1 4.56547 9.72152 9.93833 -3.18536 
55 1 6.0329 8.91187 7.76181 -3.46941 
49 1 5.73764 7.33393 9.84157 -3.23321 
9 1 9.93443 9.59713 5.62838 -3.48033 
52 1 9.88458 5.47582 8.50359 -3.38356 
3 1 11.4541 7.67874 8.79692 -3.87773 
8 1 14.0198 7.26901 8.07411 -3.33983 
11 1 12.4825 5.08227 9.18594 -3.13102 
14 1 12.1403 5.77746 6.79662 -3.13859 
16 1 12.2879 8.39676 6.23922 -3.45297 
18 1 15.1919 8.98073 9.8783 -3.24997 
1 1 5.90066 11.5523 8.34793 -3.44626 
2 1 7.57636 10.7102 6.3311 -3.45978 
26 1 8.59434 11.4705 8.81569 -3.87133 
27 1 7.59065 13.2997 6.9727 -3.14646 
28 1 7.20009 13.7748 9.49915 -3.43575 
29 1 9.83127 13.9651 8.53722 -3.4862 
5 1 13.7127 10.0375 7.95018 -3.49178 
30 1 9.94567 12.2315 6.39329 -3.46373 
4 1 11.0627 10.3086 8.12435 -3.82738 
7 1 12.3016 11.0463 5.82993 -3.16117 
12 1 12.204 12.8311 7.86255 -3.41491 
20 1 13.8161 12.0572 9.75792 -3.40551 
34 1 8.0874 9.79371 13.1504 -3.65692 
35 1 9.34073 7.48392 12.9397 -3.3642 
47 1 8.34092 6.84673 10.2896 -3.59807 
51 1 6.71656 7.60467 12.2815 -3.21256 
53 1 7.20119 9.63805 10.3916 -3.90734 
50 1 5.40484 9.84309 12.4849 -3.22185 
13 1 13.481 6.97067 10.6905 -3.4426 
45 1 9.92147 9.05625 10.7314 -3.92774 
19 1 14.7069 8.3787 12.4749 -3.12889 
22 1 12.7317 9.71861 10.7104 -3.9735 
32 1 10.8517 6.19778 11.0491 -3.45584 
33 1 11.9397 8.02406 12.7783 -3.56257 
42 1 10.5147 9.36387 14.7569 -3.23409 
24 1 9.24999 14.6783 11.048 -3.40778 
37 1 9.12461 11.8242 14.5855 -3.40724 
38 1 8.42443 12.1401 11.6322 -3.96117 
39 1 6.55435 12.0956 13.5818 -3.32784 
40 1 8.35778 14.17 13.7014 -3.14037 
44 1 6.5752 14.3178 11.973 -3.12902 
48 1 5.6669 12.0028 10.9811 -3.48271 
17 1 10.931 12.0216 10.2706 -3.81163 
21 1 12.0112 14.2831 10.3622 -3.22371 
23 1 15.0931 10.8243 11.7774 -3.17245 
25 1 13.0514 12.4237 12.2914 -3.50617 
31 1 10.7586 13.5434 12.8745 -3.50697 
36 1 10.7894 10.7229 12.6332 -3.71036 
41 1 11.7375 11.9329 14.8479 -3.14068 
43 1 13.2663 10.1298 13.7729 -3.38792 
