/tmp/LAMMPS-ma3bbn8v/data.lammps (written by ASE) 

55 	 atoms 
1  atom types
4.966483556314493 15.033516443685507  xlo xhi
3.7955207370622532 16.204479262937745  ylo yhi
4.600344351633445 15.399655648366554  zlo zhi


Atoms 

     1   1 11.084416444 11.170159263 10.815494352
     2   1 8.611156444 8.692789263 10.380294352
     3   1 10.669016444 6.798779263 10.442994352
     4   1 6.696186444 13.024579263 9.956694352
     5   1 12.929916444 9.988699263 12.756494352
     6   1 10.591516444 13.753179263 12.101694352
     7   1 6.474206444 10.444969263 10.973994352
     8   1 12.825716444 12.489279263 12.741494352
     9   1 12.714816444 8.574599263 10.486794352
    10   1 10.530516444 11.246099263 13.441194352
    11   1 8.244726444 9.655189263 12.925694352
    12   1 8.744016444 6.892899263 12.399794352
    13   1 8.495296444 12.152379263 11.849394352
    14   1 8.657016444 11.197369263 9.307894352
    15   1 10.673916444 8.757049263 12.315194352
    16   1 5.928176444 8.299089263 9.277994352
    17   1 7.546326444 6.247379263 10.060194352
    18   1 6.417166444 7.916949263 11.897294352
    19   1 9.403856444 6.605799263 8.221804352
    20   1 8.028706444 9.020229263 7.615844352
    21   1 6.004076444 10.911879263 8.266974352
    22   1 6.870696444 6.635419263 7.356204352
    23   1 5.454576444 8.833729263 6.568594352
    24   1 14.106816444 11.179919263 10.760694352
    25   1 13.914416444 13.606579263 11.492794352
    26   1 11.884116444 11.775419263 5.247324352
    27   1 14.466116444 13.270779263 8.875284352
    28   1 9.866916444 13.243579263 8.371344352
    29   1 15.033516444 10.685269263 8.261934352
    30   1 14.206916444 12.152679263 6.389064352
    31   1 12.381816444 13.959479263 7.043604352
    32   1 12.041516444 14.388979263 9.729794352
    33   1 11.323016444 7.840879263 7.798234352
    34   1 12.875816444 9.707429263 6.608924352
    35   1 13.260416444 9.036949263 9.268854352
    36   1 12.394116444 11.631059263 8.537164352
    37   1 10.235116444 10.786729263 7.119624352
    38   1 10.119516444 13.746379263 5.691474352
    39   1 10.332216444 8.920489263 5.446784352
    40   1 9.360036444 11.288709263 4.600344352
    41   1 5.417076444 15.521679263 9.534094352
    42   1 10.481716444 15.774779263 7.948414352
    43   1 7.798236444 12.586379263 6.429274352
    44   1 7.148636444 13.558279263 9.226684352
    45   1 8.099936444 15.155679263 6.847144352
    46   1 5.600316444 14.249779263 7.201464352
    47   1 7.580606444 9.949369263 6.104014352
    48   1 8.102246444 16.148679263 9.197044352
    49   1 10.213916444 16.204479263 10.759694352
    50   1 11.693216444 14.552279263 12.439394352
    51   1 5.787514783 11.180217555 9.605998424
    52   1 4.966483556 15.445105869 9.262658429
    53   1 7.170291054 8.631322038 15.399655648
    54   1 9.118583032 3.795520737 7.635158217
    55   1 14.067659192 15.808946768 5.608123883
