ITEM: TIMESTEP
208
ITEM: NUMBER OF ATOMS
55
ITEM: BOX BOUNDS ss ss ss
4.70454 14.7928
5.50379 14.6726
4.89144 15.0727
ITEM: ATOMS id type x y z c_pea 
40 1 7.4648 6.17295 6.69443 -3.17068 
44 1 8.7231 8.51673 7.37883 -3.81012 
51 1 5.89228 8.11876 7.8641 -3.49547 
52 1 9.70035 5.86816 8.06183 -3.4063 
53 1 6.88893 8.27675 5.24917 -3.29555 
54 1 4.70563 9.54873 6.11389 -2.78599 
55 1 9.54218 7.2131 5.26518 -3.28489 
33 1 7.65709 9.78409 9.62356 -3.91128 
35 1 9.04889 9.91154 5.07861 -3.34916 
32 1 7.54946 6.78529 9.40276 -3.50865 
29 1 10.1102 8.19946 9.65292 -3.91817 
37 1 11.6364 7.20999 6.94128 -3.48097 
39 1 11.5604 9.18112 4.8924 -3.30148 
46 1 12.0153 6.00239 9.57469 -3.41227 
50 1 13.7193 8.91567 6.45595 -3.15793 
38 1 11.2904 9.85169 7.43549 -3.79252 
3 1 13.0808 8.33439 9.0182 -3.62523 
34 1 5.02316 10.5097 8.6209 -3.31465 
36 1 9.24094 11.4751 7.96118 -3.72108 
42 1 6.85217 12.569 8.56065 -3.40919 
43 1 6.95249 10.6096 6.69306 -3.51912 
48 1 9.23682 14.0141 8.99505 -3.31398 
41 1 10.5941 11.8989 5.66018 -3.16189 
45 1 13.7806 10.9254 8.38268 -3.45332 
47 1 13.0437 11.3531 5.86894 -3.1391 
49 1 11.7263 12.6781 8.06039 -3.50837 
14 1 9.65663 9.77166 12.1994 -3.92711 
17 1 7.89706 7.7148 11.8148 -3.5355 
18 1 8.27322 8.53778 14.3782 -3.1538 
24 1 9.71913 5.82196 10.9016 -3.40188 
31 1 5.57943 8.73368 10.6429 -3.23963 
28 1 11.9305 8.1744 11.6206 -3.78567 
4 1 14.7809 8.70923 13.132 -3.19973 
5 1 14.1605 6.91354 11.2474 -3.23411 
9 1 13.5118 9.92756 15.0267 -3.18567 
15 1 12.7882 7.36811 14.0348 -3.31641 
20 1 10.12 6.96993 13.3134 -3.45525 
21 1 10.9007 9.21843 14.6807 -3.53209 
25 1 12.1092 5.50477 12.1994 -3.17629 
2 1 14.3336 9.79034 10.8482 -3.50297 
26 1 8.78589 12.0121 10.7136 -3.85634 
12 1 9.16522 14.6716 11.6572 -3.14949 
16 1 8.88265 11.0732 14.5762 -3.32495 
19 1 7.49149 12.8233 12.9211 -3.3378 
23 1 6.99841 10.1542 12.6541 -3.49406 
27 1 6.92805 14.1422 10.6223 -3.14657 
30 1 5.86655 11.6614 10.8844 -3.4135 
1 1 11.4299 10.7581 10.0651 -3.9659 
6 1 10.2694 12.6094 12.9738 -3.56923 
7 1 13.6946 12.3568 10.7094 -3.37816 
8 1 11.3393 13.5091 10.6424 -3.48425 
10 1 12.3283 10.6405 12.6864 -3.7724 
11 1 14.7917 11.4185 13.1141 -3.18275 
13 1 12.8703 13.2559 13.0858 -3.18803 
22 1 11.6593 11.7893 15.0718 -3.19066 
