/var/folders/35/zn93tsdx7p13vbrdj0l0gn9r0000gn/T/LAMMPS-o27l0k3p/data.lammps (written by ASE) 

5 	 atoms 
1  atom types
0.0 10.000000000  xlo xhi
0.0 10.000000000  ylo yhi
0.0 10.000000000  zlo zhi


Atoms 

     1   1 4.074601624 3.957126625 4.093018723
     2   1 5.348057947 6.042873375 4.322633082
     3   1 5.925398376 4.259194144 5.906981277
     4   1 4.074601624 3.957126625 4.093018723
     5   1 5.348057947 6.042873375 4.322633082
