ITEM: TIMESTEP
2
ITEM: NUMBER OF ATOMS
5
ITEM: BOX BOUNDS pp pp pp
0 10
0 10
0 10
ITEM: ATOMS id type x y z c_pea 
1 1 nan nan nan 0 
4 1 nan nan nan 0 
2 1 nan nan nan 0 
5 1 nan nan nan 0 
3 1 5.92539 4.25919 5.90698 0 
