ITEM: TIMESTEP
124
ITEM: NUMBER OF ATOMS
55
ITEM: BOX BOUNDS ss ss ss
3.98994 16.2449
5.07771 14.8739
4.49166 14.719
ITEM: ATOMS id type x y z c_pea 
2 1 6.40332 7.38727 6.46707 -3.16365 
7 1 6.84941 6.11327 8.86161 -3.27458 
17 1 5.57348 8.37935 8.7336 -3.48014 
5 1 8.37268 8.48402 5.22436 -3.2789 
11 1 10.6584 8.31471 6.68897 -3.60934 
12 1 8.79327 6.33385 6.9995 -3.39602 
13 1 11.3864 5.82268 7.60591 -3.30736 
14 1 9.32019 5.4596 9.50003 -3.34449 
19 1 8.27371 8.79231 8.1336 -3.92301 
31 1 10.7295 9.64038 4.49271 -2.79905 
21 1 10.8413 7.75107 9.43544 -3.93598 
30 1 13.2364 8.1663 7.29208 -3.43911 
32 1 13.7413 5.99381 8.66156 -3.08791 
36 1 15.1431 8.16011 9.27445 -3.30057 
38 1 12.8745 9.66979 9.49626 -3.72301 
4 1 6.52245 10.8986 9.25428 -3.91362 
6 1 5.05235 12.5044 7.32295 -3.13691 
9 1 6.41894 10.1604 6.57205 -3.56302 
25 1 3.99114 10.3353 8.0142 -3.15036 
51 1 7.60651 12.7324 7.04924 -3.44126 
54 1 6.36928 13.8752 9.23711 -3.43494 
50 1 8.75598 12.4379 9.52638 -3.73187 
27 1 9.19926 10.7924 6.20758 -3.53713 
29 1 10.4759 10.5371 8.62466 -3.8367 
48 1 10.4035 12.9991 7.2486 -3.43248 
52 1 8.75973 14.8729 8.2593 -3.16141 
28 1 14.6688 10.5813 7.8414 -3.29668 
33 1 12.1682 10.6551 6.50029 -3.4956 
41 1 12.6701 12.422 8.48343 -3.43913 
3 1 6.6446 9.71262 11.8967 -3.8863 
10 1 6.96563 8.98553 14.718 -3.14565 
18 1 5.41981 7.21238 11.1122 -3.30099 
20 1 4.68997 8.76095 13.2874 -3.27488 
22 1 4.10293 9.56251 10.6263 -3.4147 
15 1 7.08756 7.05753 13.0421 -3.19238 
8 1 8.16658 7.70612 10.6534 -3.76836 
23 1 11.7965 5.07874 10.163 -3.14879 
24 1 10.3557 6.58677 11.8568 -3.36429 
37 1 9.23202 8.6333 13.3035 -3.528 
47 1 11.6365 9.02278 11.9522 -3.5829 
39 1 13.2067 7.14993 10.9556 -3.4339 
53 1 14.4004 9.53303 11.6458 -3.22607 
1 1 5.70872 11.1541 14.3133 -3.04593 
16 1 4.29968 11.4336 12.3538 -3.13346 
26 1 4.30737 12.2665 9.89911 -3.30743 
40 1 6.77799 12.4955 11.6447 -3.70823 
35 1 10.836 14.0421 9.81554 -3.34871 
43 1 8.30358 14.8048 10.8219 -3.14163 
49 1 8.22196 11.2073 13.6885 -3.43892 
34 1 9.58469 12.9781 12.1512 -3.43743 
42 1 9.25994 10.276 11.1374 -3.89358 
46 1 10.8056 10.9661 13.4737 -3.15295 
44 1 11.7186 11.7217 11.0161 -3.67157 
55 1 16.2437 10.3232 9.92895 -2.86102 
45 1 14.3688 11.8807 10.3893 -3.16124 
