/var/folders/35/zn93tsdx7p13vbrdj0l0gn9r0000gn/T/LAMMPS-t0e7_f9e/data.lammps (written by ASE) 

5 	 atoms 
1  atom types
0.0 10.000000000  xlo xhi
0.0 10.000000000  ylo yhi
0.0 10.000000000  zlo zhi


Atoms 

     1   1 4.197741840 5.218978090 6.153465105
     2   1 6.545176454 4.538442893 5.927244299
     3   1 3.454823546 5.607510305 3.846534895
     4   1 5.771462201 6.247562311 4.344439875
     5   1 5.030746871 3.752437689 4.162834580
