/var/folders/35/zn93tsdx7p13vbrdj0l0gn9r0000gn/T/LAMMPS-zpv5yamd/data.lammps (written by ASE) 

55 	 atoms 
1  atom types
0.0 20.000000000  xlo xhi
0.0 20.000000000  ylo yhi
0.0 20.000000000  zlo zhi


Atoms 

     1   1 5.375184818 11.562961545 7.886233000
     2   1 6.059694818 9.431301545 6.427283000
     3   1 5.294204818 9.715351545 9.872063000
     4   1 6.069564818 7.568591545 8.592203000
     5   1 7.107464818 11.995761545 5.916413000
     6   1 6.210374818 12.228961545 10.385163000
     7   1 5.659614818 10.346761545 12.467863000
     8   1 7.289464818 13.495561545 8.301973000
     9   1 6.752834818 5.584781545 10.419263000
    10   1 6.513844818 7.926501545 11.650663000
    11   1 7.590214818 10.101361545 8.360093000
    12   1 7.730984818 5.376741545 8.100953000
    13   1 8.147084818 7.672381545 6.818723000
    14   1 8.773864818 9.928261545 5.597513000
    15   1 8.806134818 14.147861545 6.060493000
    16   1 7.792254818 14.497861545 10.926163000
    17   1 7.906474818 10.130661545 11.007763000
    18   1 7.364454818 12.330761545 12.808163000
    19   1 9.943594818 12.175461545 4.835663000
    20   1 8.537154818 7.587381545 9.668953000
    21   1 9.341294818 11.898461545 7.429303000
    22   1 8.300634818 6.074091545 12.490663000
    23   1 7.927494818 9.441651545 13.790463000
    24   1 9.192434818 12.482061545 10.328163000
    25   1 10.675874818 8.120081545 5.749523000
    26   1 9.854644818 14.500361545 8.499203000
    27   1 9.537824818 5.121461545 10.190863000
    28   1 10.934895182 10.067238455 7.290897000
    29   1 12.719095182 8.302448455 6.579847000
    30   1 12.311495182 10.506238455 4.970737000
    31   1 13.306195182 11.291338455 7.306947000
    32   1 11.228995182 12.722038455 6.013677000
    33   1 10.830895182 6.213988455 11.234737000
    34   1 12.077395182 6.675028455 8.721417000
    35   1 13.139595182 7.485658455 11.157037000
    36   1 10.509195182 8.532878455 9.710397000
    37   1 11.209495182 11.309338455 9.753357000
    38   1 13.850995182 11.802638455 9.926937000
    39   1 13.182595182 9.238148455 9.104767000
    40   1 14.705795182 9.630398455 11.405137000
    41   1 12.064295182 9.888038455 11.845537000
    42   1 10.332195182 14.878538455 9.638407000
    43   1 12.154795182 13.491338455 8.430267000
    44   1 11.829895182 13.286138455 11.385437000
    45   1 9.664675182 5.866638455 13.630837000
    46   1 9.446515182 7.812918455 15.164337000
    47   1 11.781795182 7.572568455 13.513537000
    48   1 9.403275182 8.431448455 12.322137000
    49   1 10.930495182 9.886168455 14.624037000
    50   1 9.805305182 11.248138455 12.440437000
    51   1 13.572795182 9.679698455 13.911137000
    52   1 14.013295182 11.901938455 12.506737000
    53   1 9.416055182 12.182638455 15.010637000
    54   1 9.878095182 13.914838455 13.145237000
    55   1 11.925195182 12.239738455 13.948737000
