ITEM: TIMESTEP
108
ITEM: NUMBER OF ATOMS
55
ITEM: BOX BOUNDS pp pp pp
0 20
0 20
0 20
ITEM: ATOMS id type x y z c_pea 
13 1 8.00988 7.6191 6.62023 -3.50537 
25 1 10.4346 7.93888 5.3038 -3.1641 
34 1 10.3776 6.4881 7.55244 -3.4316 
1 1 5.25725 11.6412 7.86639 -3.16402 
2 1 5.9565 9.40223 6.65209 -3.26157 
14 1 8.53424 9.9226 5.39189 -3.51698 
28 1 10.0823 9.2576 7.64762 -3.75608 
30 1 11.292 10.4823 5.40657 -3.41274 
29 1 12.4538 8.36874 7.06796 -3.30452 
31 1 12.652 11.1042 7.53951 -3.50535 
5 1 7.07988 12.0424 5.90879 -3.41794 
21 1 9.71751 12.0215 7.3115 -3.84859 
15 1 8.75824 14.2033 5.86146 -3.1443 
19 1 9.53923 12.2272 4.50151 -3.15059 
32 1 11.4572 13.3617 6.07838 -3.21045 
4 1 6.03197 7.29704 8.42725 -3.26602 
9 1 6.96987 5.736 10.4197 -3.1871 
10 1 6.8717 7.9803 11.8653 -3.58503 
12 1 7.94246 5.39928 8.03714 -3.15327 
20 1 8.46546 7.83636 9.47557 -3.91547 
27 1 9.72255 5.47775 10.0122 -3.37667 
33 1 11.44 6.05362 11.9764 -3.34919 
36 1 11.3677 7.78313 9.77021 -3.77804 
35 1 13.659 7.30755 11.1849 -3.17964 
3 1 5.61028 9.54213 9.6766 -3.48386 
11 1 7.682 10.5229 8.22559 -3.79714 
17 1 8.06978 10.2236 10.8753 -3.78992 
37 1 11.1029 10.6683 9.71762 -3.88892 
38 1 13.7676 11.6221 10.1271 -3.39761 
39 1 13.6567 9.18721 9.34514 -3.41166 
40 1 14.8503 9.52232 11.9683 -3.20056 
41 1 12.2995 9.77319 11.9511 -3.83616 
6 1 6.27299 12.2825 10.2459 -3.52396 
8 1 7.3278 13.5303 8.14457 -3.54607 
16 1 7.85529 14.6514 10.7358 -3.20978 
24 1 9.27244 12.6735 10.0706 -3.86881 
26 1 9.70956 14.7842 8.18461 -3.35423 
42 1 10.5101 15.0978 10.6226 -3.16339 
44 1 11.9507 13.001 11.5298 -3.59636 
43 1 11.8555 13.331 8.82999 -3.55386 
22 1 8.69398 5.83513 12.4419 -3.35026 
45 1 10.5035 6.74687 14.3573 -3.15644 
46 1 8.13542 7.59994 14.3002 -3.09835 
47 1 12.814 7.71545 13.6274 -3.311 
7 1 5.71426 10.4734 12.1963 -3.17234 
23 1 7.88032 10.0432 13.7156 -3.50231 
48 1 9.79812 8.29269 12.0929 -3.95527 
49 1 10.6648 9.50633 14.4584 -3.62814 
50 1 10.0337 11.2307 12.3837 -3.71187 
51 1 13.4522 10.0702 14.4244 -3.15668 
52 1 14.0989 11.9165 12.7435 -3.16426 
18 1 7.51322 12.5569 12.6003 -3.52919 
53 1 9.24898 12.0645 14.7832 -3.13478 
54 1 9.74573 13.9423 12.8546 -3.38184 
55 1 11.8166 12.1419 14.1658 -3.36308 
