/var/folders/35/zn93tsdx7p13vbrdj0l0gn9r0000gn/T/LAMMPS-yz20s_gh/data.lammps (written by ASE) 

5 	 atoms 
1  atom types
0.0 10.000000000  xlo xhi
0.0 10.000000000  ylo yhi
0.0 10.000000000  zlo zhi


Atoms 

     1   1 5.050999092 3.641574074 3.432266157
     2   1 6.096549363 4.113610678 5.602261619
     3   1 5.050999092 4.742761852 6.567733843
     4   1 3.903450637 5.087641240 4.425538095
     5   1 6.096549363 6.358425926 5.044143196
