ITEM: TIMESTEP
36
ITEM: NUMBER OF ATOMS
5
ITEM: BOX BOUNDS pp pp pp
0 10
0 10
0 10
ITEM: ATOMS id type x y z c_pea 
1 1 5.09333 3.76698 3.91735 -2.76121 
4 1 3.58031 5.62209 4.45958 -2.57481 
5 1 5.97473 6.07685 4.75065 -2.76121 
3 1 4.65108 4.52257 6.37517 -2.76121 
2 1 6.89909 3.95552 5.56919 -2.57482 
