/var/folders/35/zn93tsdx7p13vbrdj0l0gn9r0000gn/T/LAMMPS-t9fovsb2/data.lammps (written by ASE) 

55 	 atoms 
1  atom types
0.0 20.000000000  xlo xhi
0.0 20.000000000  ylo yhi
0.0 20.000000000  zlo zhi


Atoms 

     1   1 6.413014000 7.320201818 11.529158182
     2   1 10.401174000 6.241031818 11.764158182
     3   1 8.161754000 5.478711818 10.458258182
     4   1 12.989974000 6.007561818 10.896458182
     5   1 11.158074000 11.126531818 11.560358182
     6   1 8.671244000 8.557801818 11.070658182
     7   1 11.793274000 8.338431818 10.364758182
     8   1 8.330364000 11.312831818 10.460758182
     9   1 13.582274000 10.505631818 10.243358182
    10   1 8.117374000 14.132531818 10.651358182
    11   1 5.859824000 12.236931818 10.390858182
    12   1 10.905774000 15.035531818 11.099658182
    13   1 13.042274000 13.137231818 10.723558182
    14   1 8.083374000 5.832721818 13.035558182
    15   1 10.094664000 6.757501818 14.554758182
    16   1 12.485674000 6.620811818 13.493458182
    17   1 6.433904000 10.050631818 12.229058182
    18   1 7.946174000 8.259811818 13.765458182
    19   1 9.967004000 9.240631818 15.406058182
    20   1 11.219874000 11.373731818 14.385658182
    21   1 8.816704000 10.730731818 13.300358182
    22   1 10.801774000 8.781581818 12.894758182
    23   1 12.612174000 9.053571818 14.735458182
    24   1 13.736374000 8.538111818 12.260958182
    25   1 13.452174000 11.104631818 12.949058182
    26   1 7.028814000 12.653431818 12.638358182
    27   1 9.660154000 13.203931818 12.618158182
    28   1 12.190374000 13.501131818 13.080058182
    29   1 9.282340000 6.521448182 7.586761818
    30   1 10.640020000 7.103748182 5.391411818
    31   1 12.033520000 5.492798182 7.122271818
    32   1 12.925920000 7.956618182 5.999741818
    33   1 14.281620000 6.860788182 7.970481818
    34   1 6.338310000 9.685278182 6.848501818
    35   1 8.548210000 11.035278182 5.840171818
    36   1 8.417970000 8.404888182 5.916791818
    37   1 10.696420000 9.697738182 4.593941818
    38   1 10.827420000 9.506668182 7.130031818
    39   1 13.612820000 9.479078182 8.185461818
    40   1 12.989720000 10.584578182 5.790531818
    41   1 7.023910000 12.183978182 7.900791818
    42   1 11.012420000 12.236778182 5.858701818
    43   1 8.877650000 13.694878182 6.503391818
    44   1 11.127220000 14.148578182 8.067641818
    45   1 6.759700000 7.408538182 8.566011818
    46   1 7.977810000 4.978748182 9.339091818
    47   1 10.594220000 4.964468182 9.501741818
    48   1 11.645320000 7.478578182 8.717341818
    49   1 13.174720000 5.406658182 9.716391818
    50   1 5.718380000 10.384078182 9.276181818
    51   1 9.706700000 11.788478182 8.235651818
    52   1 8.381370000 9.467838182 8.561191818
    53   1 11.140620000 9.823768182 10.018651818
    54   1 12.499020000 11.895878182 8.268851818
    55   1 8.566550000 14.144778182 9.130631818
