ITEM: TIMESTEP
90
ITEM: NUMBER OF ATOMS
55
ITEM: BOX BOUNDS pp pp pp
0 20
0 20
0 20
ITEM: ATOMS id type x y z c_pea 
29 1 9.13507 5.75521 6.92738 -3.30771 
30 1 10.8078 7.33563 5.62019 -3.45408 
31 1 11.8742 5.01799 7.10163 -3.2604 
32 1 13.3907 7.0849 5.97369 -3.15855 
34 1 6.05674 9.96583 6.86355 -3.16308 
35 1 8.3842 11.1103 6.25032 -3.52926 
36 1 8.2525 8.31876 6.23356 -3.55603 
37 1 10.1166 9.76575 4.69893 -3.16207 
38 1 10.4405 9.55295 7.37655 -3.81004 
42 1 11.0221 11.979 6.08102 -3.42345 
40 1 12.5709 9.61355 5.78237 -3.36363 
43 1 9.0527 13.5898 6.82988 -3.15547 
1 1 6.71417 7.769 10.6214 -3.52338 
45 1 6.38167 7.62995 8.0074 -3.33812 
46 1 7.42544 5.42818 9.07299 -3.15604 
2 1 11.0242 6.9093 10.8949 -3.69586 
3 1 9.08725 7.48093 8.94136 -3.80373 
47 1 10.1006 4.88712 9.23818 -3.41277 
48 1 11.7867 7.28331 8.24377 -3.77425 
14 1 8.54117 6.03717 11.4327 -3.4116 
33 1 14.2924 6.15399 8.15545 -3.13787 
49 1 12.7079 5.07941 9.85867 -3.2779 
7 1 13.7395 7.63737 10.4232 -3.61465 
50 1 5.4029 10.0444 9.45923 -3.32389 
52 1 7.94542 9.88224 8.86725 -3.83187 
17 1 6.42522 10.0477 11.9576 -3.48666 
5 1 10.685 11.4156 11.7618 -3.79645 
6 1 9.14678 9.04046 11.332 -3.91553 
8 1 8.14716 11.8935 10.8992 -3.82269 
51 1 9.96264 11.8637 8.8367 -3.89761 
53 1 11.6268 9.6104 9.86087 -3.90367 
9 1 14.0924 10.3157 10.4754 -3.3665 
39 1 13.9438 8.93384 8.01889 -3.47678 
54 1 12.7344 11.363 8.01669 -3.5409 
41 1 6.80383 12.2438 8.20686 -3.50229 
11 1 5.63932 12.5093 10.6282 -3.2288 
10 1 7.41936 14.4114 11.6044 -3.15087 
12 1 10.2384 14.0431 10.795 -3.53382 
44 1 11.3409 13.8993 8.19624 -3.20941 
55 1 8.23307 14.2198 9.15766 -3.2786 
13 1 12.6011 12.6523 10.3395 -3.50045 
18 1 7.89642 7.97884 13.3259 -3.28497 
15 1 10.266 6.68916 13.4684 -3.38254 
4 1 12.9816 6.23367 12.5479 -3.25932 
16 1 12.5076 7.39254 14.7761 -3.13551 
19 1 10.2294 8.95725 14.8463 -3.35236 
20 1 11.0338 11.5598 14.4518 -3.40148 
21 1 8.56562 10.6435 13.5839 -3.58874 
22 1 11.7291 8.98578 12.6224 -3.83976 
23 1 12.9457 9.86927 14.985 -3.14944 
24 1 14.2883 8.68387 12.9089 -3.29218 
25 1 13.3194 11.332 12.7837 -3.46002 
26 1 6.59849 12.4693 13.1345 -3.16091 
27 1 9.20772 13.306 13.257 -3.44328 
28 1 11.8929 13.5929 12.8645 -3.16343 
