ITEM: TIMESTEP
160
ITEM: NUMBER OF ATOMS
55
ITEM: BOX BOUNDS ss ss ss
4.83065 14.2663
5.27214 14.2864
4.67359 16.5081
ITEM: ATOMS id type x y z c_pea 
39 1 6.06038 7.93943 7.35862 -3.25866 
42 1 7.30356 9.13615 5.21266 -3.23129 
46 1 8.88564 9.53634 7.19137 -3.84539 
54 1 8.08673 6.6593 6.65533 -3.3324 
24 1 11.5389 9.46554 6.45126 -3.48054 
34 1 10.6069 7.09748 7.46781 -3.53339 
52 1 9.72992 7.93035 5.04039 -3.15922 
18 1 12.9281 8.25003 8.51601 -3.27499 
36 1 6.14524 10.5715 7.34885 -3.54935 
43 1 8.16892 12.0073 6.205 -3.45792 
49 1 4.83166 12.8213 7.44494 -2.84261 
31 1 7.22087 13.077 8.47179 -3.61267 
50 1 9.56423 14.1156 7.38331 -3.15398 
22 1 10.9398 12.1261 6.33822 -3.34592 
55 1 9.64868 10.467 4.67486 -3.15986 
33 1 12.6377 11.1781 8.25303 -3.53504 
19 1 8.6251 5.96375 11.3487 -3.41934 
21 1 9.21662 8.84653 11.7379 -3.966 
27 1 5.50419 8.8531 9.71068 -3.3975 
28 1 6.42332 6.11591 9.38358 -3.19281 
41 1 8.2795 7.83756 9.28011 -3.79848 
51 1 8.9232 5.27314 8.76824 -3.17264 
9 1 6.61655 7.64244 11.7416 -3.46336 
8 1 12.5641 8.4292 11.2825 -3.62784 
17 1 10.9049 6.63258 10.084 -3.50148 
25 1 10.6792 9.27707 9.31482 -3.81293 
23 1 5.07071 11.5295 9.76661 -3.41137 
29 1 9.14046 14.1836 10.0617 -3.46627 
30 1 7.66423 10.5202 9.65715 -3.8355 
35 1 6.80625 13.0742 11.2305 -3.54723 
37 1 6.53854 10.3904 12.0615 -3.59519 
40 1 9.1769 11.7089 11.7155 -3.92637 
47 1 5.04736 14.1277 9.54647 -2.79864 
16 1 14.2653 10.0779 9.92513 -3.18809 
32 1 9.82698 11.8282 8.75997 -3.79607 
15 1 11.771 11.1656 10.9171 -3.78899 
20 1 13.7836 12.6643 10.6147 -3.21166 
26 1 11.221 13.7681 11.6662 -3.45958 
38 1 11.7538 13.623 9.00687 -3.37895 
13 1 14.0954 10.3219 12.5032 -3.39902 
4 1 6.40092 8.8918 14.1199 -2.90167 
6 1 8.34238 7.21501 13.7923 -3.32097 
10 1 13.072 8.11358 14.0158 -3.31693 
12 1 10.4786 8.07073 15.1638 -3.34352 
14 1 10.8708 6.93931 12.7992 -3.43416 
53 1 12.5564 8.69794 16.5068 -2.85666 
48 1 8.74795 14.2854 12.7012 -3.16375 
5 1 8.71601 10.0284 14.2229 -3.62455 
45 1 7.41277 12.276 13.7897 -3.21749 
2 1 10.8303 10.6134 16.0355 -3.3248 
44 1 10.2086 12.5419 14.1283 -3.57784 
1 1 12.2316 12.7456 15.784 -2.84895 
3 1 12.8939 12.5387 13.266 -3.43612 
7 1 11.3453 10.0464 13.3776 -3.90302 
11 1 13.4955 10.6034 15.1233 -3.30638 
