/var/folders/35/zn93tsdx7p13vbrdj0l0gn9r0000gn/T/LAMMPS-43eclst4/data.lammps (written by ASE) 

55 	 atoms 
1  atom types
0.0 20.000000000  xlo xhi
0.0 20.000000000  ylo yhi
0.0 20.000000000  zlo zhi


Atoms 

     1   1 5.264110000 7.128814182 10.115089182
     2   1 7.217200000 6.567334182 11.798789182
     3   1 9.375780000 5.196524182 10.627389182
     4   1 8.339950000 9.063814182 11.591089182
     5   1 10.656390000 7.578394182 10.535989182
     6   1 13.481690000 7.970544182 11.475589182
     7   1 14.735890000 10.193684182 10.061889182
     8   1 6.424650000 11.525284182 11.179589182
     9   1 7.735750000 13.973484182 10.147389182
    10   1 12.026990000 11.458284182 10.125789182
    11   1 9.144630000 11.724584182 11.220389182
    12   1 12.285690000 14.124284182 9.866659182
    13   1 10.075050000 14.241384182 11.375389182
    14   1 14.261790000 12.684184182 11.063889182
    15   1 9.611590000 6.942094182 13.020789182
    16   1 11.827990000 5.808924182 12.076389182
    17   1 7.291350000 8.111184182 13.992189182
    18   1 5.694400000 8.991914182 12.071289182
    19   1 7.384720000 10.786284182 13.534689182
    20   1 11.022090000 9.849384182 12.051689182
    21   1 9.602750000 9.358384182 14.336689182
    22   1 12.017490000 8.043774182 13.700789182
    23   1 11.946290000 10.677284182 14.485589182
    24   1 13.645790000 10.464584182 12.497289182
    25   1 7.728740000 13.399984182 12.737589182
    26   1 9.766050000 12.070784182 13.836689182
    27   1 11.981590000 12.689284182 12.518989182
    28   1 9.017539455 6.298800000 5.892480818
    29   1 11.300609455 5.429670000 6.693530818
    30   1 13.075409455 7.244170000 7.307750818
    31   1 7.845689455 11.295560000 5.629330818
    32   1 11.159009455 8.041770000 5.514410818
    33   1 8.536399455 8.801030000 5.811730818
    34   1 10.556709455 10.701160000 5.532300818
    35   1 6.425379455 12.728360000 7.362630818
    36   1 9.448969455 12.943460000 6.756540818
    37   1 12.131009455 12.600960000 6.725130818
    38   1 7.605859455 7.548730000 8.151110818
    39   1 10.352909455 7.656460000 7.974360818
    40   1 9.030519455 5.155440000 8.256780818
    41   1 11.663509455 5.282120000 9.370830818
    42   1 14.519009455 6.397330000 9.313080818
    43   1 6.628729455 10.017560000 7.638960818
    44   1 5.628089455 11.410860000 9.702110818
    45   1 5.631379455 8.423680000 9.812810818
    46   1 12.192909455 9.863970000 7.611650818
    47   1 9.429449455 10.252460000 7.927700818
    48   1 14.054709455 11.750960000 8.511880818
    49   1 14.584109455 9.064200000 8.787200818
    50   1 6.189949455 13.987860000 9.824410818
    51   1 7.867089455 14.844560000 7.974570818
    52   1 10.479309455 14.701960000 8.443070818
    53   1 8.311509455 12.377960000 9.221980818
    54   1 11.213909455 12.157860000 9.130240818
    55   1 13.047809455 14.172760000 8.764010818
