/tmp/LAMMPS-n5ojdlj2/data.lammps (written by ASE) 

55 	 atoms 
1  atom types
5.066175 14.933824999999999  xlo xhi
4.623704999999999 15.376295  ylo yhi
4.828174999999999 15.171825000000002  zlo zhi


Atoms 

     1   1 8.354285000 13.002795000 10.362425000
     2   1 6.848325000 13.175295000 12.814525000
     3   1 10.922325000 14.097095000 11.195925000
     4   1 9.309545000 13.664895000 13.255625000
     5   1 6.528805000 6.488165000 11.938225000
     6   1 5.066175000 11.874495000 11.104225000
     7   1 7.039095000 8.633405000 13.539625000
     8   1 5.627095000 10.905795000 13.544825000
     9   1 10.033225000 14.816995000 8.869885000
    10   1 5.378425000 7.184505000 9.657365000
    11   1 5.181105000 9.027345000 11.630425000
    12   1 7.467095000 10.736995000 11.509525000
    13   1 5.926795000 14.415995000 10.736225000
    14   1 6.196685000 12.601895000 8.714055000
    15   1 8.467575000 15.376295000 11.333725000
    16   1 7.695505000 8.308305000 10.413525000
    17   1 5.714795000 10.003295000 9.180915000
    18   1 7.436085000 15.158295000 8.820745000
    19   1 11.387925000 7.622375000 13.846325000
    20   1 8.322335000 11.118295000 14.112625000
    21   1 9.181435000 8.633555000 15.171825000
    22   1 8.887985000 6.518005000 13.495225000
    23   1 9.566925000 8.966275000 12.485125000
    24   1 10.884425000 10.417395000 14.481025000
    25   1 12.714325000 11.995595000 10.907425000
    26   1 10.257025000 11.575395000 12.018125000
    27   1 8.337215000 4.623705000 11.800725000
    28   1 12.459025000 9.836885000 12.501525000
    29   1 11.404825000 11.959395000 9.978325000
    30   1 14.329825000 11.981595000 11.054125000
    31   1 14.933825000 9.516205000 12.167225000
    32   1 13.299325000 7.649125000 11.411125000
    33   1 13.778725000 9.728185000 9.673425000
    34   1 11.505225000 6.099405000 10.259825000
    35   1 12.134225000 13.803595000 7.317645000
    36   1 13.970325000 9.562585000 6.947755000
    37   1 9.893425000 12.437695000 7.752125000
    38   1 13.691225000 12.009395000 8.362405000
    39   1 7.279975000 11.896895000 8.044155000
    40   1 13.043825000 7.463115000 8.521495000
    41   1 10.663025000 12.693195000 5.226075000
    42   1 11.260825000 10.066025000 4.828175000
    43   1 11.102525000 8.900865000 9.968625000
    44   1 6.941595000 8.847625000 5.905705000
    45   1 11.423925000 10.137405000 7.524275000
    46   1 12.158625000 7.900565000 6.050325000
    47   1 9.004165000 7.105065000 10.350925000
    48   1 9.501825000 8.241375000 5.908445000
    49   1 10.400725000 7.061275000 8.011325000
    50   1 8.770615000 10.782505000 5.780445000
    51   1 7.624755000 7.275085000 7.913335000
    52   1 8.751315000 9.572495000 8.442845000
    53   1 5.831775000 9.545515000 8.102535000
    54   1 5.955895000 11.325895000 5.835335000
    55   1 13.012525000 11.738195000 5.809375000
