/var/folders/35/zn93tsdx7p13vbrdj0l0gn9r0000gn/T/LAMMPS-_fwfw36d/data.lammps (written by ASE) 

55 	 atoms 
1  atom types
0.0 20.000000000  xlo xhi
0.0 20.000000000  ylo yhi
0.0 20.000000000  zlo zhi


Atoms 

     1   1 7.666580000 9.255769331 7.329600000
     2   1 9.674020000 9.597569331 5.449800000
     3   1 10.473940000 8.294459331 7.557010000
     4   1 12.330340000 9.383669331 5.679590000
     5   1 11.465640000 10.968469331 7.639650000
     6   1 12.969940000 7.255139331 7.412750000
     7   1 14.231440000 9.743369331 7.573630000
     8   1 7.744650000 14.165469331 7.815730000
     9   1 8.776870000 11.723369331 6.723910000
    10   1 9.841250000 14.177069331 6.407790000
    11   1 12.074540000 13.706669331 7.470030000
    12   1 11.034140000 11.994869331 5.235610000
    13   1 13.515740000 11.825969331 6.040840000
    14   1 5.191960000 7.161899331 10.393890000
    15   1 6.613690000 5.029719331 10.034490000
    16   1 7.145050000 6.600419331 12.077590000
    17   1 9.303630000 5.229609331 10.906190000
    18   1 10.589740000 5.838519331 8.520830000
    19   1 12.796540000 6.116739331 9.902930000
    20   1 6.384940000 9.350169331 9.737170000
    21   1 8.236820000 7.315989331 9.452530000
    22   1 8.267800000 9.096899331 11.869890000
    23   1 12.390940000 8.990349331 9.423600000
    24   1 10.584240000 7.611479331 10.814790000
    25   1 9.384100000 9.992869331 9.395390000
    26   1 14.808040000 7.742189331 9.334750000
    27   1 13.409540000 8.003629331 11.754390000
    28   1 14.663740000 10.226769331 10.340690000
    29   1 7.222820000 11.754069331 8.923180000
    30   1 6.352500000 11.558369331 11.458390000
    31   1 7.663600000 14.006569331 10.426190000
    32   1 11.954840000 11.491369331 10.404590000
    33   1 9.874900000 12.809269331 9.032940000
    34   1 9.072480000 11.757669331 11.499190000
    35   1 12.213540000 14.157369331 10.145460000
    36   1 10.002900000 14.274469331 11.654190000
    37   1 13.948040000 12.258669331 8.685550000
    38   1 14.189640000 12.717269331 11.342690000
    39   1 9.940440000 15.323869331 8.989470000
    40   1 9.539440000 6.975179331 13.299590000
    41   1 11.755840000 5.842009331 12.355190000
    42   1 7.219200000 8.144269331 14.270990000
    43   1 5.622250000 9.024999331 12.350090000
    44   1 7.312570000 10.819369331 13.813490000
    45   1 10.949940000 9.882469331 12.330490000
    46   1 9.530600000 9.391469331 14.615490000
    47   1 11.945340000 8.076859331 13.979590000
    48   1 11.874140000 10.710369331 14.764390000
    49   1 13.573640000 10.497669331 12.776090000
    50   1 7.656590000 13.433069331 13.016390000
    51   1 9.693900000 12.103869331 14.115490000
    52   1 11.909440000 12.722369331 12.797790000
    53   1 6.862159757 6.984949652 6.559450000
    54   1 8.906162353 6.918337673 8.148770000
    55   1 7.166917890 4.676130669 7.938650000
