/var/folders/35/zn93tsdx7p13vbrdj0l0gn9r0000gn/T/LAMMPS-3brsc3qn/data.lammps (written by ASE) 

5 	 atoms 
1  atom types
0.0 10.000000000  xlo xhi
0.0 10.000000000  ylo yhi
0.0 10.000000000  zlo zhi


Atoms 

     1   1 3.721645000 5.729790000 4.499565000
     2   1 6.278355000 5.232520000 4.347545000
     3   1 4.822075000 4.037740000 6.152825000
     4   1 5.295455000 6.444470000 6.242295000
     5   1 4.585965000 3.555530000 3.757705000
