ITEM: TIMESTEP
2
ITEM: NUMBER OF ATOMS
5
ITEM: BOX BOUNDS pp pp pp
0 10
0 10
0 10
ITEM: ATOMS id type x y z c_pea 
5 1 4.58595 3.55552 3.7577 -2.57482 
1 1 3.72165 5.72979 4.49957 -2.76121 
2 1 6.27837 5.23254 4.34756 -2.76121 
3 1 4.82207 4.03773 6.15282 -2.76121 
4 1 5.29546 6.44448 6.24229 -2.57482 
