ITEM: TIMESTEP
42
ITEM: NUMBER OF ATOMS
5
ITEM: BOX BOUNDS pp pp pp
0 10
0 10
0 10
ITEM: ATOMS id type x y z c_pea 
5 1 3.83907 4.37853 4.14722 -2.76121 
3 1 5.74523 3.06764 4.96777 -2.57482 
2 1 6.19537 5.43723 4.51278 -2.76121 
4 1 4.7804 4.66339 6.56379 -2.76119 
1 1 4.13135 6.58507 5.18172 -2.57482 
