/tmp/LAMMPS-x65gfyof/data.lammps (written by ASE) 

55 	 atoms 
1  atom types
5.073364870693376 14.926635129306625  xlo xhi
4.746609187572064 15.253390812427936  ylo yhi
4.858824579495221 15.14117542050478  zlo zhi


Atoms 

     1   1 12.447119473 6.063144787 11.874991350
     2   1 8.402498004 8.624727506 7.605755069
     3   1 7.870546490 12.671108597 14.119721408
     4   1 11.629858642 12.455984850 4.858824579
     5   1 12.099765536 14.886100423 7.369698492
     6   1 11.083913014 6.733446260 11.340102766
     7   1 11.023367129 10.370818809 7.589804879
     8   1 5.073364871 7.948872241 11.799995174
     9   1 14.483706897 14.479806166 11.547905987
    10   1 10.570219768 14.418209147 8.782900077
    11   1 7.797007507 11.921031923 6.614929773
    12   1 11.311941581 10.059597673 13.231868665
    13   1 5.867776315 11.896664726 7.585755719
    14   1 13.711422190 9.391061162 13.103876412
    15   1 9.413711630 4.746609188 9.779926825
    16   1 6.775433480 12.525202617 13.031910019
    17   1 8.326283592 10.046921472 10.891738733
    18   1 6.831110644 8.752977775 11.997925389
    19   1 14.868227196 13.347655150 8.827530951
    20   1 12.602746396 14.272231920 7.448069747
    21   1 11.902991682 15.253390812 10.245072291
    22   1 12.286412820 10.529655956 15.141175421
    23   1 8.046500011 10.021686616 5.620193401
    24   1 8.399667683 6.072623906 7.793208461
    25   1 13.361711735 12.707916873 13.627632318
    26   1 11.288414509 13.146499897 6.322285243
    27   1 14.926635129 12.014995329 12.737989151
    28   1 9.879813418 9.643922201 5.929793604
    29   1 11.089545445 14.542895520 12.147967314
    30   1 12.870170061 13.905186612 10.897255576
    31   1 11.141677266 13.780126738 9.844923361
    32   1 12.888653440 7.468082722 8.569464374
    33   1 9.423659373 8.187572668 9.925749225
    34   1 13.617369104 12.569985165 9.047589602
    35   1 11.099033359 9.087680901 14.404818634
    36   1 11.461107892 8.616461650 8.351663827
    37   1 8.769819272 12.559093825 12.637296259
    38   1 7.317707566 9.236472516 12.319615192
    39   1 10.650365862 8.420024509 7.034590428
    40   1 7.976962183 13.865194651 10.031111611
    41   1 12.133103696 9.643952017 12.747478935
    42   1 7.473861206 11.788595131 5.791375432
    43   1 6.825660780 12.683253920 10.515228459
    44   1 12.585165849 8.741804321 8.975240084
    45   1 8.537996661 14.889977154 11.507011352
    46   1 7.605047799 10.205269595 8.128911738
    47   1 11.762113220 12.146593524 10.161149403
    48   1 10.825153685 7.588987910 12.059117942
    49   1 14.684176061 9.625196549 9.145108550
    50   1 9.963714005 10.581091365 4.861639628
    51   1 12.726723551 5.910457758 11.744411373
    52   1 10.450897315 9.252745923 10.148721150
    53   1 11.975328228 9.386393089 4.922997311
    54   1 13.378135735 12.999680155 9.165289952
    55   1 12.917987675 11.832701944 5.815265818
