/var/folders/35/zn93tsdx7p13vbrdj0l0gn9r0000gn/T/LAMMPS-ax9k2qmf/data.lammps (written by ASE) 

55 	 atoms 
1  atom types
0.0 20.000000000  xlo xhi
0.0 20.000000000  ylo yhi
0.0 20.000000000  zlo zhi


Atoms 

     1   1 8.566312455 10.505446000 6.131168182
     2   1 6.369142455 10.529646000 9.914078182
     3   1 11.046932455 10.788346000 7.396878182
     4   1 8.779992455 9.815546000 8.798618182
     5   1 11.156132455 10.958346000 10.141778182
     6   1 13.458332455 11.005846000 8.786728182
     7   1 5.842082455 13.182546000 9.839278182
     8   1 6.815942455 11.875746000 7.602708182
     9   1 7.330292455 14.462046000 8.243898182
    10   1 9.307602455 12.925846000 7.152838182
    11   1 11.602032455 13.181946000 8.602188182
    12   1 9.677452455 14.956746000 9.015978182
    13   1 8.616782455 12.394746000 9.722478182
    14   1 13.096032455 12.842146000 10.754178182
    15   1 7.332762455 10.310746000 13.963578182
    16   1 5.539382455 9.615146000 12.222678182
    17   1 9.801132455 11.027946000 14.674178182
    18   1 11.886432455 9.475046000 13.854578182
    19   1 9.163372455 10.783046000 11.996678182
    20   1 13.403332455 10.400646000 11.692378182
    21   1 6.738062455 12.172746000 12.096378182
    22   1 7.866492455 14.527646000 11.058978182
    23   1 11.549932455 11.965546000 12.891578182
    24   1 10.557932455 13.714646000 11.165978182
    25   1 8.933552455 13.121646000 13.234078182
    26   1 10.116165000 5.678994000 6.080090000
    27   1 7.620465000 5.043254000 6.860970000
    28   1 7.935925000 6.835244000 5.028720000
    29   1 12.294065000 7.240404000 5.864200000
    30   1 11.689065000 6.026404000 8.238040000
    31   1 5.085185000 9.773864000 7.048050000
    32   1 6.281565000 7.309594000 7.230530000
    33   1 10.087365000 8.405784000 5.100830000
    34   1 7.361225000 9.322364000 5.691570000
    35   1 9.056695000 7.661194000 7.498080000
    36   1 13.970865000 7.767234000 7.824580000
    37   1 11.556865000 8.832034000 7.984470000
    38   1 5.473305000 6.670124000 11.350880000
    39   1 6.283285000 5.330764000 9.167290000
    40   1 7.985595000 5.355014000 11.415780000
    41   1 9.138735000 5.239684000 8.948410000
    42   1 10.996165000 5.144794000 10.903880000
    43   1 12.977665000 7.215284000 10.350280000
    44   1 4.955335000 8.345054000 9.306060000
    45   1 10.333465000 7.580344000 10.170140000
    46   1 8.771535000 9.208374000 11.642480000
    47   1 7.551235000 7.473814000 9.927630000
    48   1 15.044665000 8.893874000 10.001490000
    49   1 9.805565000 6.692594000 12.808280000
    50   1 12.523865000 6.130384000 12.902080000
    51   1 11.316565000 7.239154000 14.971280000
    52   1 7.225995000 7.590444000 13.024280000
    53   1 14.638565000 7.565794000 12.379580000
    54   1 11.804765000 8.716374000 12.575080000
    55   1 13.552165000 8.582314000 14.569380000
