ITEM: TIMESTEP
94
ITEM: NUMBER OF ATOMS
55
ITEM: BOX BOUNDS pp pp pp
0 20
0 20
0 20
ITEM: ATOMS id type x y z c_pea 
27 1 7.63713 4.82457 6.72531 -3.15474 
32 1 6.28761 7.04501 7.19554 -3.47643 
28 1 8.34992 6.97451 5.20343 -3.23556 
26 1 10.1143 5.07245 6.19958 -3.14942 
35 1 9.02796 7.12041 7.68503 -3.81604 
29 1 11.3836 7.32797 5.99992 -3.25984 
36 1 13.5004 7.94282 7.92775 -3.12284 
8 1 6.49559 11.7701 7.76225 -3.43502 
34 1 6.99999 9.40083 6.16691 -3.37016 
1 1 8.46734 11.7825 5.99979 -3.40963 
3 1 11.0206 11.3304 6.7983 -3.47377 
33 1 9.60214 9.27272 5.79454 -3.44299 
9 1 7.66251 14.1431 7.26583 -3.15192 
10 1 10.1562 13.9206 6.67169 -3.15103 
38 1 5.70419 6.07948 11.5635 -3.15678 
39 1 6.60561 5.09212 9.15741 -3.37676 
47 1 7.32376 7.61214 9.88559 -3.85532 
44 1 4.65843 6.97921 9.38454 -3.15869 
40 1 8.29762 5.42804 11.3087 -3.46197 
30 1 11.6709 5.903 8.25668 -3.51355 
41 1 9.32528 4.70908 8.91588 -3.47614 
42 1 11.0487 4.99655 11.0885 -3.2751 
45 1 10.2331 7.3114 10.2082 -3.82343 
43 1 12.9597 6.81877 10.3998 -3.48708 
31 1 5.55288 9.31955 8.50976 -3.44787 
2 1 6.58591 10.9877 10.3664 -3.65745 
16 1 5.38015 8.78839 11.3381 -3.3555 
37 1 11.1857 8.91392 8.1678 -3.71188 
4 1 8.44334 9.76544 8.4203 -3.93827 
5 1 11.1073 10.8095 10.0437 -3.88653 
46 1 8.91972 9.37537 11.3103 -3.82959 
6 1 13.2375 10.8661 8.13762 -3.27772 
48 1 13.5777 9.4396 10.2474 -3.52416 
7 1 7.06549 13.7069 9.84684 -3.44966 
19 1 8.90254 12.051 11.294 -3.62062 
22 1 8.67356 14.5807 11.9028 -3.15789 
11 1 11.8724 13.2096 8.60413 -3.43794 
12 1 9.49034 14.8636 9.23462 -3.33905 
13 1 9.18104 12.3175 8.62322 -3.72177 
24 1 11.0745 13.7197 11.0598 -3.38401 
14 1 13.2945 12.1334 10.7155 -3.31223 
52 1 7.36261 7.73662 12.8336 -3.43847 
49 1 9.86798 6.85374 12.9191 -3.52946 
51 1 11.1841 7.78624 14.9671 -3.15101 
50 1 12.5281 6.32241 13.0447 -3.35071 
53 1 14.5487 7.94353 12.2082 -3.13903 
15 1 7.01068 10.4501 13.026 -3.43123 
17 1 9.46944 9.64526 13.9304 -3.57435 
18 1 11.9346 10.2889 14.8584 -3.1667 
23 1 11.2607 11.6167 12.7292 -3.61238 
54 1 11.7235 8.83684 12.2967 -3.97597 
20 1 13.7962 10.4983 12.8329 -3.34362 
55 1 13.6479 8.36242 14.5199 -3.12598 
21 1 6.61986 12.9952 12.4163 -3.15249 
25 1 8.83985 12.3683 13.8487 -3.19379 
