ITEM: TIMESTEP
200
ITEM: NUMBER OF ATOMS
55
ITEM: BOX BOUNDS ss ss ss
5.32285 15.0342
5.09177 15.0974
4.64114 14.7102
ITEM: ATOMS id type x y z c_pea 
27 1 6.83437 8.75349 7.29118 -3.31441 
53 1 9.30693 7.75465 6.02074 -3.26397 
49 1 9.57203 9.35205 8.02428 -3.8706 
8 1 5.32381 8.08221 9.31139 -3.11744 
21 1 8.11514 6.74321 8.29231 -3.49663 
28 1 10.654 6.05249 7.92654 -3.35948 
30 1 11.8709 8.24695 6.96204 -3.47321 
38 1 12.977 7.02251 9.15357 -3.53375 
39 1 14.2415 9.08521 7.79402 -3.16605 
47 1 12.0455 9.69585 9.42417 -3.90836 
29 1 8.13077 13.8286 8.48932 -3.41454 
32 1 7.22256 11.1821 8.33325 -3.67305 
33 1 7.38468 12.7643 6.12138 -3.17127 
37 1 8.19647 10.2968 5.68195 -3.40848 
52 1 9.26258 14.5419 6.05305 -3.14015 
35 1 9.83957 12.0468 7.37855 -3.89621 
40 1 9.61835 12.3858 4.64215 -3.17465 
43 1 10.8132 10.169 5.47545 -3.36849 
41 1 11.6592 12.5105 9.52858 -3.75188 
42 1 11.738 13.386 6.01185 -3.28092 
45 1 10.7877 14.7321 8.15104 -3.43131 
46 1 12.6351 11.1714 7.16044 -3.58374 
51 1 14.3023 11.2861 9.35482 -3.49697 
54 1 13.4493 13.7359 8.18395 -3.25841 
2 1 9.10689 5.09284 10.1271 -3.23382 
36 1 7.78215 8.83852 10.1304 -3.88442 
11 1 8.39396 6.8063 12.0448 -3.46718 
14 1 5.96482 8.17131 11.9993 -3.31857 
20 1 9.72616 9.40183 12.2328 -3.8768 
25 1 6.5592 6.09925 10.3374 -3.15215 
55 1 7.9122 8.33478 14.0317 -3.16435 
50 1 14.7475 8.61984 10.3423 -3.4183 
5 1 10.9485 6.4124 12.653 -3.48373 
6 1 13.0095 7.09615 14.2083 -3.16084 
7 1 10.8043 8.6401 14.4725 -3.45032 
12 1 13.6929 6.22231 11.7101 -3.30423 
13 1 11.6593 5.10941 10.3992 -3.19279 
16 1 15.0332 8.18869 12.9728 -3.1619 
17 1 10.3554 7.55977 10.1255 -3.89256 
22 1 12.4626 8.54897 11.9268 -3.81773 
19 1 13.2837 9.8251 14.2523 -3.4429 
1 1 5.60628 10.4559 10.3654 -3.22155 
31 1 9.33864 11.2221 10.161 -3.88405 
4 1 8.84192 10.5752 14.7091 -3.14378 
3 1 7.19783 12.6519 10.7602 -3.32445 
18 1 9.28717 12.3228 12.7018 -3.56885 
26 1 7.22173 10.5197 12.4772 -3.53854 
34 1 9.67074 14.0687 10.6464 -3.49043 
48 1 12.2434 15.0963 10.2989 -3.16246 
9 1 11.2264 11.5257 14.4813 -3.35165 
10 1 11.9033 11.2201 11.9064 -3.85241 
15 1 14.6265 10.6964 12.016 -3.46366 
23 1 11.5901 13.8106 12.571 -3.38222 
24 1 13.6023 12.4849 13.7161 -3.16612 
44 1 13.8753 13.2329 11.119 -3.41933 
