/var/folders/35/zn93tsdx7p13vbrdj0l0gn9r0000gn/T/LAMMPS-6kv90h2_/data.lammps (written by ASE) 

5 	 atoms 
1  atom types
0.0 10.000000000  xlo xhi
0.0 10.000000000  ylo yhi
0.0 10.000000000  zlo zhi


Atoms 

     1   1 5.112668699 5.849526142 6.316355599
     2   1 5.928732356 3.544582331 6.100144166
     3   1 4.139465533 4.193730997 4.550495476
     4   1 5.182058039 4.427229704 3.683644401
     5   1 4.071267644 6.455417669 4.506599926
