ITEM: TIMESTEP
22
ITEM: NUMBER OF ATOMS
5
ITEM: BOX BOUNDS pp pp pp
0 10
0 10
0 10
ITEM: ATOMS id type x y z c_pea 
4 1 5.7951 4.83102 3.83137 -2.7612 
5 1 3.92794 6.37416 4.22797 -2.57482 
3 1 3.61626 4.08534 5.05786 -2.7612 
2 1 5.84572 3.414 5.83486 -2.57482 
1 1 5.24917 5.76597 6.20518 -2.76121 
