/tmp/LAMMPS-mq10s72f/data.lammps (written by ASE) 

55 	 atoms 
1  atom types
5.476535 14.523465  xlo xhi
4.955889999999999 15.04411  ylo yhi
3.9024835942914855 16.097516405708514  zlo zhi


Atoms 

     1   1 10.553485000 6.055810000 4.858223594
     2   1 8.282005000 5.911600000 8.555093594
     3   1 10.343525000 8.805490000 4.697053594
     4   1 8.215345000 5.171060000 5.851833594
     5   1 6.179115000 8.096390000 5.079713594
     6   1 10.478565000 4.955890000 7.388823594
     7   1 8.510155000 7.765360000 6.526223594
     8   1 8.263615000 7.006530000 3.906163594
     9   1 7.949995000 9.613810000 3.902483594
    10   1 11.260465000 7.576300000 7.092553594
    11   1 10.459905000 4.991800000 10.158903594
    12   1 12.834665000 5.466520000 6.100433594
    13   1 6.134055000 6.322040000 7.004013594
    14   1 8.804285000 8.629470000 11.771503594
    15   1 10.281665000 6.362040000 12.482703594
    16   1 7.948195000 6.114710000 11.144103594
    17   1 6.192185000 8.297890000 11.982103594
    18   1 5.607835000 9.972410000 10.007903594
    19   1 7.774725000 6.906610000 13.681603594
    20   1 5.476535000 8.836350000 7.567073594
    21   1 5.674975000 12.568310000 10.333103594
    22   1 10.287755000 7.533120000 9.715623594
    23   1 5.546635000 11.606710000 7.806073594
    24   1 7.453005000 10.292810000 6.428623594
    25   1 7.879165000 8.901640000 9.084973594
    26   1 5.939325000 7.113520000 9.596523594
    27   1 9.958165000 12.766610000 6.748043594
    28   1 14.523465000 9.555200000 10.775603594
    29   1 12.964365000 9.273190000 6.239183594
    30   1 12.085265000 11.395010000 7.675973594
    31   1 13.041765000 7.225550000 10.818603594
    32   1 8.780665000 10.171300000 15.882803594
    33   1 11.137465000 6.692930000 12.628303594
    34   1 6.246605000 13.249310000 10.723003594
    35   1 8.704115000 14.494010000 10.615303594
    36   1 12.433865000 9.271370000 12.656303594
    37   1 12.142365000 9.624240000 9.874703594
    38   1 8.109905000 12.718310000 8.797963594
    39   1 13.763765000 7.913160000 8.372043594
    40   1 6.669315000 14.958210000 8.709753594
    41   1 10.398165000 10.204310000 5.830603594
    42   1 10.837565000 13.223810000 9.385483594
    43   1 7.435435000 13.737710000 6.443833594
    44   1 10.178165000 8.367850000 14.425703594
    45   1 10.522765000 10.905910000 13.898103594
    46   1 13.401165000 12.001910000 10.008203594
    47   1 9.728965000 10.647410000 9.046013594
    48   1 10.918265000 8.467650000 7.793433594
    49   1 9.982165000 9.177140000 11.632903594
    50   1 11.283365000 11.680810000 11.526303594
    51   1 9.235265000 15.044110000 8.034443594
    52   1 8.071115000 9.919550000 13.374903594
    53   1 8.548975000 11.777610000 11.398803594
    54   1 14.479765000 10.382910000 8.256783594
    55   1 7.186385052 10.277086570 16.097516406
