ITEM: TIMESTEP
134
ITEM: NUMBER OF ATOMS
55
ITEM: BOX BOUNDS ss ss ss
4.7257 14.6424
5.09627 14.3397
3.8209 14.6097
ITEM: ATOMS id type x y z c_pea 
4 1 7.54979 5.66577 5.77828 -3.21211 
5 1 6.8429 8.28618 4.74933 -3.14108 
7 1 8.88783 7.62205 6.59563 -3.77155 
8 1 8.88849 7.12719 3.82212 -3.14286 
13 1 6.05907 7.71612 7.09268 -3.40522 
6 1 9.64716 5.09728 7.73056 -3.39316 
2 1 7.50063 6.20856 8.75621 -3.58104 
25 1 7.9032 9.05817 8.84325 -3.90899 
1 1 10.3467 5.63194 5.31628 -3.15519 
3 1 11.1774 8.15367 4.81754 -3.44345 
10 1 11.8482 6.96846 7.27807 -3.70581 
29 1 13.1573 9.3002 6.24714 -3.43812 
48 1 10.3607 9.67733 7.06243 -3.75652 
37 1 12.2837 9.32392 8.89251 -3.71779 
39 1 14.3782 7.83985 8.19493 -3.15915 
9 1 9.04505 9.81268 4.59865 -3.3911 
20 1 5.20593 9.95515 8.30423 -3.43964 
23 1 5.10189 12.4015 7.40468 -3.09536 
24 1 7.25755 10.4309 6.49428 -3.70045 
27 1 9.61806 12.2145 6.75788 -3.59646 
43 1 7.21455 13.2767 6.5065 -3.11363 
38 1 7.43957 11.8019 8.91715 -3.86701 
51 1 8.80654 14.3387 8.21828 -3.18571 
30 1 12.3101 11.744 7.33984 -3.54027 
41 1 11.4201 10.928 4.94063 -3.15491 
42 1 11.1405 13.5053 9.07171 -3.29275 
54 1 14.6415 10.4793 8.1687 -3.16571 
14 1 8.29104 8.05262 11.4609 -3.96412 
16 1 6.68172 5.82328 11.3889 -3.21192 
17 1 5.64276 7.97232 12.4844 -3.20411 
26 1 5.53716 7.67044 9.8117 -3.39765 
11 1 9.14172 5.12867 10.5736 -3.40452 
19 1 8.61349 5.97316 13.1503 -3.20268 
55 1 7.50686 8.13699 14.2091 -3.22302 
12 1 11.6112 5.19313 9.44701 -3.17618 
49 1 11.1087 9.42165 11.3436 -3.87687 
22 1 10.1267 7.47505 9.35808 -3.93318 
28 1 14.3944 9.37257 10.6401 -3.35629 
31 1 13.0273 7.14364 10.3885 -3.43973 
15 1 10.9635 6.52605 11.9094 -3.51955 
33 1 12.8655 8.36611 12.9091 -3.25978 
44 1 10.1072 8.27584 13.7214 -3.48927 
18 1 6.22827 10.06 10.8549 -3.62873 
21 1 4.7266 12.1269 9.92922 -3.15768 
34 1 6.61588 12.6246 11.6562 -3.29361 
35 1 8.87997 13.4421 10.6681 -3.42176 
40 1 6.35266 14.1256 9.22327 -3.25307 
53 1 8.75149 10.8235 11.9618 -3.82014 
52 1 6.42608 10.4553 13.4348 -3.20329 
32 1 8.72317 10.4376 14.6085 -3.04364 
47 1 10.0652 11.1251 9.4043 -3.88263 
46 1 13.0409 11.749 9.9649 -3.49288 
50 1 11.105 12.3398 11.7119 -3.45013 
36 1 13.3484 10.9242 12.4592 -3.16565 
45 1 11.1843 10.668 13.8215 -3.25156 
