/var/folders/35/zn93tsdx7p13vbrdj0l0gn9r0000gn/T/LAMMPS-4bm394rx/data.lammps (written by ASE) 

55 	 atoms 
1  atom types
0.0 20.000000000  xlo xhi
0.0 20.000000000  ylo yhi
0.0 20.000000000  zlo zhi


Atoms 

     1   1 9.228272091 11.837837364 15.385336636
     2   1 10.692912091 9.525027364 15.244436636
     3   1 7.930142091 9.535597364 15.192136636
     4   1 9.210222091 7.228417364 14.877936636
     5   1 11.662512091 12.153237364 14.258336636
     6   1 6.654132091 6.879287364 13.827336636
     7   1 12.967312091 9.803407364 13.706536636
     8   1 5.769072091 9.478127364 13.570536636
     9   1 7.231012091 11.660237364 13.457736636
    10   1 9.347682091 13.421937364 13.178236636
    11   1 9.810502091 10.649737364 13.028636636
    12   1 11.022212091 7.968037364 12.963636636
    13   1 13.951412091 12.430737364 12.944736636
    14   1 8.251762091 8.503327364 12.726436636
    15   1 9.064452091 5.956907364 12.482636636
    16   1 11.801212091 13.747737364 11.922636636
    17   1 14.761212091 10.386637364 11.628236636
    18   1 12.137912091 11.021737364 11.554036636
    19   1 6.709042091 5.660217364 11.454636636
    20   1 5.243772091 11.065037364 11.400136636
    21   1 5.616332091 8.204707364 11.325836636
    22   1 7.242322091 13.195037364 11.205636636
    23   1 12.958412091 8.444827364 11.114636636
    24   1 7.608022091 10.409037364 10.964336636
    25   1 9.510182091 14.851437364 10.905836636
    26   1 9.754372091 12.208437364 10.694136636
    27   1 10.273112091 9.210517364 10.512236636
    28   1 10.714012091 6.566947364 10.448236636
    29   1 8.038362091 7.608557364 10.190936636
    30   1 7.991417909 7.368382636 6.733383364
    31   1 10.416137909 7.688162636 5.416953364
    32   1 10.359137909 6.237382636 7.665593364
    33   1 5.238787909 11.390482636 7.979543364
    34   1 5.938037909 9.151512636 6.765243364
    35   1 8.515777909 9.671882636 5.505043364
    36   1 10.063837909 9.006882636 7.760773364
    37   1 11.273537909 10.231582636 5.519723364
    38   1 12.435337909 8.118022636 7.181113364
    39   1 12.633537909 10.853482636 7.652663364
    40   1 7.061417909 11.791682636 6.021943364
    41   1 9.699047909 11.770782636 7.424653364
    42   1 8.739777909 13.952582636 5.974613364
    43   1 9.520767909 11.976482636 4.614663364
    44   1 11.438737909 13.110982636 6.191533364
    45   1 6.013507909 7.046322636 8.540403364
    46   1 7.923997909 5.148562636 8.150293364
    47   1 8.446997909 7.585642636 9.588723364
    48   1 11.349237909 7.532412636 9.883363364
    49   1 5.591817909 9.291412636 9.789753364
    50   1 7.663537909 10.272182636 8.338743364
    51   1 11.084437909 10.417582636 9.830773364
    52   1 13.638237909 8.936492636 9.458293364
    53   1 7.309337909 13.279582636 8.257723364
    54   1 9.691097909 14.533482636 8.297763364
    55   1 11.837037909 13.080282636 8.943143364
