ITEM: TIMESTEP
164
ITEM: NUMBER OF ATOMS
55
ITEM: BOX BOUNDS pp pp pp
0 20
0 20
0 20
ITEM: ATOMS id type x y z c_pea 
30 1 7.69235 6.43793 7.05127 -3.31836 
32 1 10.4154 6.75436 6.37113 -3.44773 
35 1 8.38449 7.804 4.86543 -3.1761 
34 1 6.89373 9.13979 6.64207 -3.48942 
40 1 7.41276 11.8008 6.80891 -3.46833 
31 1 10.7894 8.72657 4.43465 -3.14559 
36 1 9.63927 9.33101 6.77535 -3.70902 
37 1 11.2868 11.1863 5.37201 -3.46162 
41 1 10.0067 11.8536 7.76144 -3.72732 
43 1 8.64157 10.5514 4.6904 -3.32851 
38 1 12.3474 8.88119 6.69256 -3.47066 
39 1 12.7835 11.4571 7.67126 -3.4762 
42 1 9.30612 13.0746 5.43721 -3.18182 
44 1 11.6014 13.6696 6.55811 -3.15177 
54 1 9.27545 14.3372 7.91597 -3.26694 
19 1 7.62766 5.87156 10.1041 -3.42761 
45 1 6.10327 7.83756 8.85356 -3.53101 
21 1 5.44423 6.72406 11.4407 -3.08311 
46 1 9.7301 5.13891 8.42802 -3.1384 
28 1 10.3968 6.09048 10.873 -3.43765 
47 1 9.12367 7.64019 8.83953 -3.67503 
48 1 11.8517 7.02215 8.70587 -3.50613 
33 1 5.60153 10.7212 8.71906 -3.38238 
29 1 7.11146 8.591 11.2257 -3.6619 
24 1 7.49488 11.2672 11.467 -3.65702 
49 1 4.60256 9.27922 10.6828 -3.23889 
50 1 8.11116 10.1478 9.01483 -3.86698 
27 1 9.76329 8.71244 11.2164 -3.74419 
51 1 11.2363 9.68042 9.14632 -3.84075 
26 1 9.99565 11.7932 10.5021 -3.83132 
17 1 14.3895 9.70583 11.6636 -3.10864 
18 1 12.9661 11.5157 10.4028 -3.60705 
23 1 12.4503 8.04235 11.2379 -3.58687 
52 1 13.7926 9.15755 9.06269 -3.27773 
20 1 5.0953 12.0047 11.0324 -3.20361 
22 1 7.00732 13.8328 11.8475 -3.18399 
53 1 7.39309 12.925 9.29176 -3.62015 
25 1 9.36876 14.3362 10.6792 -3.34689 
55 1 11.626 13.6359 9.23179 -3.45981 
6 1 6.333 7.76997 13.8051 -3.3099 
4 1 8.68179 7.81812 15.1449 -3.20337 
12 1 10.8361 7.58686 13.4407 -3.50503 
15 1 8.38546 6.60434 12.647 -3.49297 
3 1 6.86388 9.84675 15.4286 -3.18742 
8 1 5.45688 10.1228 13.0426 -3.4287 
1 1 8.96284 11.5156 15.5119 -3.21948 
2 1 10.7682 9.5903 15.2181 -3.34755 
11 1 11.3458 10.4712 12.4924 -3.81451 
14 1 8.62131 9.80925 13.4515 -3.8424 
7 1 13.0883 9.158 13.8953 -3.21211 
13 1 13.6428 11.7303 13.1287 -3.1687 
9 1 6.79954 12.1752 13.9951 -3.35187 
16 1 11.7207 13.3338 12.048 -3.42532 
5 1 11.4728 12.09 14.6011 -3.25228 
10 1 9.2972 12.7558 13.0853 -3.65172 
