ITEM: TIMESTEP
138
ITEM: NUMBER OF ATOMS
55
ITEM: BOX BOUNDS ss ss ss
5.21927 15.6253
4.17272 14.8629
5.72011 16.1018
ITEM: ATOMS id type x y z c_pea 
3 1 7.86037 6.2853 7.25857 -3.31052 
6 1 9.63398 8.10246 5.95917 -3.40206 
9 1 7.11687 8.93985 6.93211 -3.31923 
14 1 6.50814 5.02881 9.21632 -2.78775 
38 1 6.49163 7.59639 9.17055 -3.55911 
40 1 9.25711 8.26788 8.59394 -3.86136 
15 1 8.84624 5.78004 9.90358 -3.66394 
29 1 10.518 5.96654 7.43669 -3.52913 
33 1 11.0369 4.17374 9.2886 -3.16179 
8 1 14.0651 9.09098 6.45708 -3.21424 
21 1 13.2431 9.44203 10.0926 -3.68551 
24 1 14.8645 7.73095 8.58994 -3.32484 
27 1 12.2386 7.24665 5.72119 -3.08921 
31 1 13.0907 5.76901 8.38843 -3.40955 
46 1 12.019 8.28544 8.01133 -3.67178 
42 1 11.3416 6.81645 10.2542 -3.87888 
45 1 12.9993 4.67631 10.9087 -3.16164 
52 1 5.22032 9.93703 8.50717 -3.15818 
11 1 6.58018 12.3546 8.14313 -3.43251 
20 1 8.98564 10.7482 6.94607 -3.63861 
22 1 9.21064 12.5361 9.01586 -3.48969 
30 1 8.53617 13.5555 6.66173 -3.15258 
54 1 5.25903 11.5744 10.4803 -3.16136 
5 1 7.61428 10.3857 9.62918 -3.87157 
18 1 9.80485 14.3118 10.8332 -3.16506 
25 1 7.77005 14.776 8.92765 -3.15596 
49 1 10.336 14.8619 8.25234 -3.15979 
10 1 13.186 11.2128 7.89387 -3.56563 
26 1 11.4989 10.0221 6.0485 -3.41861 
55 1 15.5805 10.2007 8.47468 -3.14875 
1 1 11.0589 12.5844 6.96594 -3.42202 
28 1 11.9383 13.0416 9.60338 -3.52648 
37 1 14.5019 11.8197 10.2261 -3.17429 
44 1 10.8297 10.4652 9.26391 -3.91016 
4 1 8.39659 8.43726 11.2203 -3.80744 
23 1 8.69353 7.7704 15.4554 -3.1679 
39 1 6.78709 6.29537 11.5807 -3.29224 
41 1 6.84234 8.14969 13.5235 -3.42886 
43 1 5.56531 8.96806 11.208 -3.4165 
34 1 9.41116 6.77791 13.0114 -3.6428 
7 1 15.6242 9.37299 10.9935 -3.11825 
12 1 14.1425 7.04334 11.0365 -3.45303 
16 1 12.2382 6.51072 12.8462 -3.44857 
19 1 13.5346 9.08916 12.8742 -3.43444 
32 1 11.2789 8.18564 14.6436 -3.41183 
47 1 11.0829 8.99493 11.8508 -3.85595 
50 1 10.5024 4.67174 11.8175 -3.19086 
2 1 7.30079 10.0204 15.3348 -2.94811 
13 1 9.8814 9.98909 16.1007 -2.97833 
51 1 9.17185 9.73734 13.5928 -3.5592 
17 1 7.34734 13.0671 10.9409 -3.41501 
35 1 6.97239 10.814 12.496 -3.52789 
53 1 9.64971 11.5954 11.6167 -3.74029 
36 1 11.6235 10.7237 14.116 -3.23422 
48 1 12.3841 11.4986 11.7442 -3.46478 
