/tmp/LAMMPS-m0eg4yon/data.lammps (written by ASE) 

55 	 atoms 
1  atom types
5.256574999999999 14.743425000000002  xlo xhi
4.213165 15.786835  ylo yhi
5.281924999999999 14.718075  zlo zhi


Atoms 

     1   1 12.332125000 9.217035000 8.568915000
     2   1 11.543425000 4.853195000 11.612275000
     3   1 12.305825000 9.010285000 11.338575000
     4   1 12.856625000 9.999935000 13.680575000
     5   1 8.370315000 10.990735000 13.979375000
     6   1 14.743425000 8.702575000 10.067875000
     7   1 14.610325000 10.891635000 8.701165000
     8   1 11.907825000 11.550635000 10.010675000
     9   1 11.751225000 14.324335000 11.040275000
    10   1 8.295875000 8.676445000 12.529375000
    11   1 10.243865000 7.063845000 11.167775000
    12   1 10.477425000 8.872935000 14.079875000
    13   1 9.985735000 13.445535000 12.994975000
    14   1 10.346365000 10.854135000 12.218575000
    15   1 13.802125000 13.236035000 9.701815000
    16   1 9.481485000 4.871145000 9.668775000
    17   1 7.683155000 6.180695000 11.538375000
    18   1 9.175685000 4.213165000 12.168575000
    19   1 9.632645000 6.309695000 13.596975000
    20   1 14.044925000 7.190075000 8.066715000
    21   1 11.457625000 6.454295000 8.762995000
    22   1 10.923625000 11.542635000 14.718075000
    23   1 14.255425000 11.001335000 11.373975000
    24   1 7.406595000 13.003135000 12.600475000
    25   1 9.767385000 9.380725000 10.023075000
    26   1 12.553725000 12.484535000 12.707875000
    27   1 6.000835000 10.437435000 12.672175000
    28   1 9.880325000 12.463835000 5.281925000
    29   1 8.842635000 12.107935000 7.793185000
    30   1 6.337085000 6.049545000 10.583675000
    31   1 10.349025000 10.734835000 9.657955000
    32   1 5.902305000 7.851755000 8.694535000
    33   1 11.052925000 13.802735000 7.329855000
    34   1 10.328425000 7.507365000 5.683375000
    35   1 9.996125000 13.454935000 9.958075000
    36   1 7.434185000 14.338035000 8.949945000
    37   1 7.847255000 9.721525000 8.743105000
    38   1 8.510205000 14.423435000 6.506675000
    39   1 10.363725000 8.700415000 7.923305000
    40   1 7.273945000 5.468675000 8.281025000
    41   1 7.260085000 12.142335000 5.616395000
    42   1 8.936355000 9.991605000 5.930155000
    43   1 5.524975000 11.033435000 12.228575000
    44   1 12.178225000 15.078435000 9.427105000
    45   1 7.901855000 7.626325000 6.833335000
    46   1 10.457125000 15.786835000 11.252275000
    47   1 6.207235000 9.909255000 6.747305000
    48   1 6.688615000 8.818265000 11.263075000
    49   1 6.095765000 12.285335000 8.037855000
    50   1 5.619015000 13.210835000 10.694775000
    51   1 9.673925000 15.758435000 8.639485000
    52   1 7.654885000 11.667135000 10.604975000
    53   1 8.025675000 14.594835000 11.486775000
    54   1 5.256575000 10.419275000 9.604025000
    55   1 11.397925000 11.075235000 7.059075000
