ITEM: TIMESTEP
26
ITEM: NUMBER OF ATOMS
5
ITEM: BOX BOUNDS pp pp pp
0 10
0 10
0 10
ITEM: ATOMS id type x y z c_pea 
4 1 5.21181 4.80444 3.05111 -2.57482 
3 1 3.89317 6.01677 4.72918 -2.76119 
5 1 4.59799 3.52591 5.0545 -2.76122 
1 1 4.71681 5.16428 6.87844 -2.57482 
2 1 6.40193 5.4098 5.11073 -2.76121 
