ITEM: TIMESTEP
332
ITEM: NUMBER OF ATOMS
55
ITEM: BOX BOUNDS ss ss ss
4.69964 15.6895
5.10491 14.654
5.17826 13.9388
ITEM: ATOMS id type x y z c_pea 
16 1 6.26487 8.02657 7.80088 -3.46855 
29 1 6.09786 9.52839 5.53978 -3.14995 
33 1 8.61414 6.81355 8.44297 -3.61157 
53 1 10.0502 9.28984 8.44267 -3.90879 
43 1 8.47265 8.54289 6.20868 -3.49166 
34 1 10.774 7.11833 6.75385 -3.49231 
8 1 12.5007 7.8036 8.8314 -3.7992 
31 1 10.9315 5.38421 9.04126 -3.44377 
32 1 14.8423 9.40905 8.18021 -3.41926 
45 1 12.8936 5.52975 7.29523 -3.1319 
47 1 13.249 8.06822 6.27004 -3.29857 
55 1 14.9459 6.75232 8.08357 -3.14769 
49 1 10.798 9.6143 5.60582 -3.32037 
41 1 4.70077 10.3222 7.74058 -3.31517 
30 1 8.33647 11.1539 5.17922 -3.43183 
35 1 9.9485 11.6506 7.26505 -3.59998 
36 1 7.90705 13.4249 6.85344 -3.49961 
38 1 5.84692 12.8696 8.51165 -3.42433 
44 1 5.83107 12.0341 5.94846 -3.16346 
48 1 7.76418 14.653 9.30114 -3.22242 
50 1 7.38227 10.594 7.78061 -3.88043 
39 1 10.1972 14.3242 8.06938 -3.46036 
40 1 10.2088 13.3464 5.44191 -2.96499 
42 1 12.4903 10.4144 7.4714 -3.66312 
51 1 14.1201 12.0863 8.90736 -3.42981 
52 1 12.3376 13.1551 7.20286 -3.30501 
20 1 6.51218 6.56013 10.2121 -3.32686 
5 1 6.00263 8.54331 12.1101 -3.29641 
6 1 8.06981 9.01656 13.8334 -3.13474 
19 1 8.27733 6.9707 12.2432 -3.44415 
21 1 8.78398 5.10587 10.5259 -3.15329 
23 1 7.74847 8.99206 10.1317 -3.93501 
27 1 4.70856 8.47029 9.80727 -3.13274 
37 1 10.3132 7.64413 10.566 -3.76742 
46 1 13.3378 5.67357 10.1584 -3.33419 
4 1 14.9713 7.92527 10.4612 -3.42976 
12 1 10.4916 8.19151 13.305 -3.42408 
17 1 11.0443 5.5717 11.879 -3.22335 
26 1 12.7805 7.65356 12.0013 -3.55375 
3 1 14.6586 9.6302 12.5464 -3.14596 
13 1 8.46261 12.1081 9.81706 -3.95932 
24 1 6.43133 13.3203 11.1363 -3.18751 
15 1 7.33016 10.9491 12.3065 -3.51776 
1 1 9.94247 10.2632 11.4407 -3.89963 
9 1 8.72852 13.1318 12.4739 -3.29535 
11 1 10.0564 14.432 10.665 -3.31975 
18 1 5.67149 10.8448 10.2279 -3.52648 
25 1 9.73383 11.0474 13.9378 -3.26786 
10 1 11.2725 11.9804 9.62137 -3.82139 
2 1 11.3372 12.6906 12.2733 -3.46627 
7 1 12.6185 14.1289 9.87648 -3.22807 
14 1 12.884 9.93626 10.4102 -3.88853 
22 1 12.2077 10.2787 13.1105 -3.4524 
28 1 13.8232 12.1667 11.5856 -3.38886 
54 1 15.6884 10.5674 10.41 -3.15671 
