/tmp/LAMMPS-ajmpohjz/data.lammps (written by ASE) 

55 	 atoms 
1  atom types
5.071213645845592 14.928786354154408  xlo xhi
4.9587864079423465 15.041213592057654  ylo yhi
5.1306699999999985 14.869330000000001  zlo zhi


Atoms 

     1   1 6.820676354 11.431316408 10.737330000
     2   1 8.438846354 11.755416408 12.812030000
     3   1 5.301416354 9.021416408 10.509030000
     4   1 9.676186354 11.485116408 10.482830000
     5   1 12.052886354 12.586016408 11.043730000
     6   1 5.148226354 6.390036408 10.008930000
     7   1 6.659876354 9.609316408 12.734630000
     8   1 10.536686354 13.320816408 8.727890000
     9   1 12.447786354 9.885516408 6.325650000
    10   1 12.450786354 11.459316408 8.527930000
    11   1 10.178686354 9.996516408 8.008200000
    12   1 5.933866354 8.042286408 8.021280000
    13   1 7.503786354 5.857196408 8.575000000
    14   1 5.598496354 10.800816408 8.410560000
    15   1 7.307096354 10.002616408 6.516130000
    16   1 8.188266354 11.987416408 8.243780000
    17   1 8.439296354 11.945116408 5.130670000
    18   1 8.520506354 7.681326408 6.894900000
    19   1 9.829486354 9.661716408 5.379350000
    20   1 7.817736354 9.385116408 9.338990000
    21   1 8.799296354 13.952816408 6.691230000
    22   1 6.381816354 12.601916408 6.516830000
    23   1 10.735486354 12.108216408 6.376360000
    24   1 5.435146354 7.102956408 12.594530000
    25   1 11.566986354 10.212116408 9.862630000
    26   1 14.470686354 9.244356408 10.645730000
    27   1 13.217886354 7.788406408 8.815730000
    28   1 14.917986354 8.163246408 12.929530000
    29   1 14.297586354 6.367556408 11.044930000
    30   1 13.831686354 11.810816408 10.506930000
    31   1 13.648886354 9.381576408 14.824230000
    32   1 12.465386354 10.094516408 12.483930000
    33   1 14.928786354 10.872516408 12.911630000
    34   1 13.007386354 12.709916408 12.883330000
    35   1 9.793716354 9.225676408 11.996930000
    36   1 12.925286354 6.822126408 13.832330000
    37   1 9.019736354 10.527216408 14.373730000
    38   1 8.034146354 7.168816408 11.612330000
    39   1 8.410306354 7.991796408 14.175730000
    40   1 10.257086354 6.423946408 13.110930000
    41   1 11.037786354 8.672446408 14.478230000
    42   1 11.796386354 11.243316408 14.869330000
    43   1 9.856216354 5.275976408 10.699130000
    44   1 12.246286354 4.958786408 11.996930000
    45   1 12.067586354 7.628416408 11.418130000
    46   1 10.247286354 7.653476408 9.450450000
    47   1 7.686546354 6.239306408 9.200290000
    48   1 11.773486354 6.664006408 6.738810000
    49   1 13.917686354 10.379416408 8.180210000
    50   1 12.152386354 5.456406408 9.372220000
    51   1 13.856386354 8.369686408 6.253480000
    52   1 9.837436354 5.322176408 7.859360000
    53   1 5.071213646 9.545308784 8.470571083
    54   1 6.164419479 5.393415928 12.906653973
    55   1 13.399354918 15.041213592 11.738157242
