/var/folders/35/zn93tsdx7p13vbrdj0l0gn9r0000gn/T/LAMMPS-jql3x4zt/data.lammps (written by ASE) 

55 	 atoms 
1  atom types
0.0 20.000000000  xlo xhi
0.0 20.000000000  ylo yhi
0.0 20.000000000  zlo zhi


Atoms 

     1   1 7.153140000 5.553949636 10.889372545
     2   1 6.112900000 7.975759636 11.023972545
     3   1 8.852760000 7.845339636 10.737472545
     4   1 9.878020000 5.415299636 11.427572545
     5   1 11.618620000 7.700569636 10.692372545
     6   1 12.694820000 5.789799636 11.926072545
     7   1 14.343220000 7.928229636 11.212072545
     8   1 5.656780000 10.636309636 10.941072545
     9   1 8.223150000 11.332909636 10.433272545
    10   1 12.970120000 10.251709636 11.140072545
    11   1 6.069440000 13.167109636 10.436672545
    12   1 8.512050000 14.212809636 10.992472545
    13   1 11.031320000 14.982409636 11.177172545
    14   1 12.916920000 12.966909636 11.159872545
    15   1 7.924870000 6.854529636 13.023372545
    16   1 10.638820000 6.992939636 13.419572545
    17   1 7.553310000 9.635119636 12.633372545
    18   1 10.340520000 9.545639636 12.495172545
    19   1 8.902690000 8.565999636 14.746672545
    20   1 11.196120000 9.764589636 15.046472545
    21   1 8.918950000 11.241509636 14.404672545
    22   1 10.388320000 12.208709636 12.214472545
    23   1 12.679920000 11.352809636 13.524772545
    24   1 12.824920000 8.471319636 13.265772545
    25   1 7.295630000 12.455509636 12.697872545
    26   1 9.356590000 14.102909636 13.616472545
    27   1 10.984120000 12.524509636 15.158072545
    28   1 12.062220000 14.082209636 13.429572545
    29   1 8.291554182 7.245080000 6.461967455
    30   1 8.359124182 4.973530000 7.961287455
    31   1 10.534744182 5.667470000 6.816637455
    32   1 6.290694182 9.076610000 6.642117455
    33   1 6.072684182 11.317690000 7.988957455
    34   1 10.779544182 8.388870000 6.746777455
    35   1 8.723334182 9.899540000 5.655527455
    36   1 11.250844182 11.014390000 6.259537455
    37   1 13.067444182 9.401960000 7.846817455
    38   1 6.962424182 11.938690000 5.649067455
    39   1 8.857224182 12.042890000 7.574857455
    40   1 9.453634182 12.381190000 4.841927455
    41   1 8.276624182 14.305090000 6.155707455
    42   1 10.893744182 13.708990000 6.762087455
    43   1 12.707644182 12.217190000 8.219297455
    44   1 6.782374182 7.117360000 8.756397455
    45   1 9.662744182 7.195550000 8.965217455
    46   1 10.751944182 4.873810000 9.462427455
    47   1 12.454244182 6.724080000 8.309747455
    48   1 5.916034182 9.423840000 9.805037455
    49   1 8.236474182 9.445980000 8.334677455
    50   1 10.747844182 10.323990000 8.882167455
    51   1 14.332944182 7.983490000 9.766017455
    52   1 6.916284182 13.778290000 8.357567455
    53   1 10.380744182 12.955890000 9.665247455
    54   1 9.352764182 15.126190000 8.518777455
    55   1 12.093644182 14.872390000 8.835417455
