/var/folders/35/zn93tsdx7p13vbrdj0l0gn9r0000gn/T/LAMMPS-n_b1k4pm/data.lammps (written by ASE) 

55 	 atoms 
1  atom types
0.0 20.000000000  xlo xhi
0.0 20.000000000  ylo yhi
0.0 20.000000000  zlo zhi


Atoms 

     1   1 7.146186636 8.774684727 14.319906000
     2   1 5.564746636 9.656944727 12.387006000
     3   1 7.249656636 11.449204727 13.860206000
     4   1 5.143036636 7.792214727 10.430306000
     5   1 7.605716636 14.061004727 13.062206000
     6   1 6.307666636 12.187504727 11.497706000
     7   1 7.083726636 7.228534727 12.127206000
     8   1 9.458666636 10.016554727 14.677706000
     9   1 9.632176636 12.728204727 14.176906000
    10   1 9.469786636 7.597664727 13.366306000
    11   1 8.213986636 9.721864727 11.925306000
    12   1 6.562156636 5.656064727 10.083006000
    13   1 6.346416636 9.976654727 9.779426000
    14   1 7.631186636 14.630904727 10.471306000
    15   1 11.804606636 11.329504727 14.840906000
    16   1 9.027836636 12.380404727 11.556606000
    17   1 6.164086636 7.477374727 7.982366000
    18   1 7.195116636 12.377604727 8.967906000
    19   1 11.874006636 8.694704727 14.059106000
    20   1 9.246486636 5.849934727 10.971706000
    21   1 9.962806636 14.895304727 11.714906000
    22   1 8.194566636 7.937564727 9.508676000
    23   1 10.894906636 10.501594727 12.401606000
    24   1 11.857806636 13.338504727 12.871906000
    25   1 11.689606636 6.457774727 12.437606000
    26   1 7.730076636 14.786404727 7.861216000
    27   1 8.913873364 7.625010000 6.342244000
    28   1 8.914303364 5.131330000 7.529204000
    29   1 11.171763364 6.072380000 6.684084000
    30   1 7.253443364 12.203600000 6.145484000
    31   1 11.387963364 8.668800000 6.893384000
    32   1 9.263343364 10.264330000 6.028284000
    33   1 11.728163364 11.388900000 6.446694000
    34   1 13.483463364 9.730670000 8.082774000
    35   1 9.260233364 12.347200000 7.845004000
    36   1 9.761693364 12.757100000 5.159094000
    37   1 8.568403364 14.610500000 6.519034000
    38   1 11.260063364 14.032600000 7.066034000
    39   1 11.209263364 6.139420000 11.145394000
    40   1 9.988063364 7.416660000 8.976264000
    41   1 11.085163364 4.769300000 8.938634000
    42   1 12.850263364 6.844920000 8.682214000
    43   1 13.682063364 6.713940000 11.514994000
    44   1 11.845963364 11.042400000 11.809794000
    45   1 12.194463364 8.694190000 10.425894000
    46   1 10.915463364 10.480700000 8.932774000
    47   1 14.214463364 10.914400000 10.395594000
    48   1 14.856963364 8.343060000 9.926354000
    49   1 10.810463364 13.036500000 10.072654000
    50   1 9.678033364 15.230700000 8.900804000
    51   1 12.330263364 15.118000000 9.281324000
    52   1 13.364763364 13.472100000 11.097194000
    53   1 13.006963364 12.483600000 8.536534000
    54   1 14.294963364 11.773300000 12.973294000
    55   1 14.029363364 9.169070000 12.503194000
