/tmp/LAMMPS-_ufn3z4o/data.lammps (written by ASE) 

55 	 atoms 
1  atom types
5.026659999999999 14.97334  xlo xhi
4.60301 15.396989999999999  ylo yhi
5.041359999999998 14.958640000000003  zlo zhi


Atoms 

     1   1 12.545640000 7.003700000 9.353820000
     2   1 12.233240000 11.314890000 10.457540000
     3   1 14.755540000 10.287890000 10.493340000
     4   1 14.745440000 12.890290000 9.891140000
     5   1 12.382040000 14.030190000 10.705740000
     6   1 10.865840000 14.764990000 8.389900000
     7   1 12.774140000 9.667740000 8.380360000
     8   1 12.776940000 11.329690000 5.987660000
     9   1 14.973340000 8.272550000 8.641580000
    10   1 12.779940000 12.903490000 8.189940000
    11   1 10.507840000 11.440690000 7.670210000
    12   1 10.475540000 6.648780000 7.521420000
    13   1 10.205240000 9.003930000 8.915860000
    14   1 7.636250000 11.446790000 6.178140000
    15   1 8.517420000 13.431590000 7.905790000
    16   1 11.237840000 4.650660000 9.462740000
    17   1 8.849660000 9.125500000 6.556910000
    18   1 10.158640000 11.105890000 5.041360000
    19   1 11.471540000 8.925870000 6.109940000
    20   1 9.128450000 15.396990000 6.353240000
    21   1 6.710970000 14.046090000 6.178840000
    22   1 11.064640000 13.552390000 6.038370000
    23   1 9.127540000 10.197190000 9.560440000
    24   1 6.951260000 9.003590000 8.164870000
    25   1 8.402950000 12.952090000 9.867240000
    26   1 11.217440000 12.483290000 13.459240000
    27   1 12.641240000 13.649190000 11.217640000
    28   1 13.438640000 11.325690000 12.525540000
    29   1 12.900840000 5.354890000 10.625340000
    30   1 11.217540000 11.682690000 10.524440000
    31   1 12.766440000 8.896870000 10.818540000
    32   1 12.351640000 6.731780000 12.928840000
    33   1 8.512240000 8.720220000 13.270840000
    34   1 9.595540000 6.305550000 13.684840000
    35   1 11.096640000 9.667690000 12.679540000
    36   1 9.593840000 10.651490000 14.849940000
    37   1 10.867940000 4.603010000 12.179440000
    38   1 8.961090000 11.280590000 12.111640000
    39   1 6.903420000 10.951190000 13.711240000
    40   1 8.616300000 13.036890000 14.178540000
    41   1 12.321240000 10.544390000 14.958640000
    42   1 11.050740000 8.220310000 14.837140000
    43   1 7.007150000 13.120990000 12.128540000
    44   1 10.378340000 7.283540000 11.210940000
    45   1 7.839410000 5.667320000 8.776030000
    46   1 8.353390000 5.291190000 11.422040000
    47   1 6.621750000 10.756190000 10.652440000
    48   1 5.786610000 6.171080000 10.733040000
    49   1 5.801790000 8.850450000 12.458040000
    50   1 6.900290000 6.586120000 13.137740000
    51   1 10.362140000 4.978750000 9.581040000
    52   1 7.690110000 7.989290000 10.686140000
    53   1 5.026660000 8.590850000 9.971740000
    54   1 5.671690000 6.779930000 8.128620000
    55   1 9.779640000 14.005090000 11.895040000
