ITEM: TIMESTEP
102
ITEM: NUMBER OF ATOMS
55
ITEM: BOX BOUNDS ss ss ss
6.00999 15.5083
4.71395 15.4999
5.33216 14.7724
ITEM: ATOMS id type x y z c_pea 
37 1 6.79678 9.58827 8.22375 -3.37219 
38 1 8.3667 7.40318 8.77747 -3.59268 
41 1 10.739 9.10574 9.45632 -3.84492 
47 1 9.38342 9.22731 7.09737 -3.5085 
55 1 9.35486 4.86972 9.27699 -3.14301 
39 1 11.0093 6.75059 8.06188 -3.55496 
45 1 11.7716 4.75247 10.0032 -3.15845 
30 1 14.8736 9.29584 6.69545 -3.14588 
33 1 15.5071 8.37436 9.18204 -3.28553 
40 1 13.7032 7.14972 7.41281 -3.13621 
50 1 12.0053 9.02768 6.6504 -3.52903 
31 1 13.3079 9.76955 8.92082 -3.78635 
16 1 13.0794 7.10551 9.89428 -3.62104 
42 1 6.46141 12.3468 8.61303 -3.3038 
52 1 7.24473 14.1479 6.7193 -2.97111 
43 1 8.17001 11.5486 6.7186 -3.51931 
44 1 9.05118 13.5334 8.44625 -3.6412 
46 1 9.30221 13.4911 5.33314 -3.12775 
48 1 10.6924 11.2077 5.58182 -3.33263 
49 1 8.68065 10.9311 9.54146 -3.83612 
51 1 9.66221 15.4988 6.8937 -2.97817 
29 1 11.3996 14.8668 8.93036 -3.23259 
36 1 11.0416 11.5425 8.21067 -3.90038 
53 1 11.5984 13.6542 6.57883 -3.41349 
32 1 13.3107 11.4315 6.52812 -3.43937 
34 1 13.3137 13.0053 8.7304 -3.58087 
35 1 15.4711 11.2169 8.42657 -3.31949 
14 1 10.2909 6.88293 10.8956 -3.73012 
2 1 8.13395 6.62999 13.1632 -3.27121 
26 1 6.01114 7.93602 10.2114 -3.20202 
54 1 6.29806 8.64894 12.797 -3.18048 
6 1 10.6776 7.11106 13.6822 -3.48066 
7 1 9.89666 4.71502 12.0891 -3.21921 
9 1 7.54938 5.86683 10.8551 -3.28663 
13 1 8.35383 8.75809 11.248 -3.81419 
15 1 8.78357 9.05099 14.0579 -3.46298 
11 1 12.5889 5.8944 12.2849 -3.4035 
17 1 11.4679 9.70967 14.4283 -3.45854 
21 1 12.1385 8.79271 11.8934 -3.84572 
19 1 13.2874 7.68877 14.1372 -3.1636 
25 1 14.7057 7.91866 11.8749 -3.33493 
4 1 6.16433 10.5674 10.7115 -3.44556 
1 1 7.68359 12.9773 10.9398 -3.3653 
27 1 7.52279 11.1553 12.9371 -3.47482 
3 1 9.30176 13.3014 13.0145 -3.16911 
5 1 9.58091 11.5072 14.7714 -3.14002 
8 1 10.1051 10.7114 12.113 -3.89001 
12 1 10.5391 13.0311 10.6853 -3.68246 
10 1 11.8731 12.3679 13.3984 -3.53763 
18 1 12.767 11.4167 10.998 -3.85472 
20 1 15.2893 10.3897 11.0338 -3.48414 
22 1 15.2792 12.9921 10.4316 -3.14045 
23 1 12.9158 14.132 11.2462 -3.30156 
24 1 13.924 10.2018 13.4061 -3.42944 
28 1 14.4984 12.6552 12.8118 -3.12785 
