/var/folders/35/zn93tsdx7p13vbrdj0l0gn9r0000gn/T/LAMMPS-i0yihoye/data.lammps (written by ASE) 

5 	 atoms 
1  atom types
0.0 10.000000000  xlo xhi
0.0 10.000000000  ylo yhi
0.0 10.000000000  zlo zhi


Atoms 

     1   1 5.535557363 4.882277131 6.124246808
     2   1 3.420543988 5.673507624 5.162211129
     3   1 4.223156012 5.126095000 3.875753192
     4   1 6.129316012 3.815205000 4.696303192
     5   1 6.579456012 6.184795000 4.241313192
