ITEM: TIMESTEP
34
ITEM: NUMBER OF ATOMS
5
ITEM: BOX BOUNDS pp pp pp
0 10
0 10
0 10
ITEM: ATOMS id type x y z c_pea 
3 1 4.2403 4.53517 3.80557 -2.76123 
4 1 6.53294 3.83788 4.33739 -2.57481 
5 1 6.10533 6.25341 4.41926 -2.76119 
1 1 5.18693 4.62028 6.2351 -2.76122 
2 1 3.82252 6.43514 5.30251 -2.57481 
