ITEM: TIMESTEP
230
ITEM: NUMBER OF ATOMS
55
ITEM: BOX BOUNDS ss ss ss
4.41817 15.5806
4.98123 14.8572
5.14655 15.2628
ITEM: ATOMS id type x y z c_pea 
21 1 6.35449 7.69935 9.2333 -3.441 
23 1 7.93233 8.31303 7.05555 -3.36175 
24 1 4.41936 9.46561 9.9642 -3.14839 
13 1 8.61248 6.23656 8.86361 -3.44522 
2 1 8.85591 9.05991 9.43553 -3.85957 
7 1 9.9683 9.28958 5.84873 -3.3573 
14 1 11.0739 5.03763 9.02862 -3.15627 
15 1 10.7272 7.2934 7.5489 -3.54311 
55 1 11.4606 9.83741 8.18096 -3.79132 
41 1 13.1512 6.68802 9.22576 -3.47901 
51 1 13.346 8.21226 7.11712 -3.30015 
52 1 13.2389 9.35924 10.0807 -3.74373 
53 1 15.3713 8.45959 9.06685 -3.22977 
3 1 5.28366 11.8928 10.1896 -3.40171 
4 1 6.52044 10.2829 8.33882 -3.64301 
6 1 7.66421 10.978 5.90829 -3.2104 
11 1 6.89452 12.9141 7.9414 -3.44795 
28 1 8.41433 14.8563 8.93263 -3.13301 
5 1 9.26998 11.2722 7.84943 -3.71719 
10 1 9.23674 13.6461 6.73925 -3.24799 
9 1 12.3875 10.2709 5.6116 -3.19702 
54 1 15.4058 11.1044 9.86949 -3.147 
12 1 10.1305 11.7743 5.14746 -3.17147 
32 1 10.491 13.3359 9.35016 -3.59398 
33 1 11.8082 12.4105 7.10194 -3.46231 
34 1 14.1189 10.6793 7.63108 -3.40906 
47 1 12.9121 12.1626 9.60454 -3.55683 
16 1 5.09312 7.61532 11.5687 -3.1248 
18 1 6.93484 9.76617 11.2632 -3.85354 
20 1 6.55519 8.0688 13.5742 -3.2559 
22 1 7.93823 7.08503 11.4516 -3.68818 
26 1 9.5595 4.98221 11.1228 -3.16764 
40 1 8.6878 8.05392 15.0393 -3.16704 
37 1 9.28514 9.24075 12.716 -3.92416 
19 1 10.6954 7.41926 10.3458 -3.82229 
36 1 10.177 6.62379 13.2057 -3.57949 
42 1 11.3283 8.53743 14.9629 -3.40145 
46 1 11.9808 8.61836 12.3271 -3.68074 
39 1 12.1634 5.50591 11.5746 -3.40645 
44 1 12.8852 6.63345 13.906 -3.17113 
45 1 15.5794 9.38029 11.7346 -3.17298 
48 1 13.958 9.14393 13.8752 -3.26376 
49 1 14.2859 7.1892 11.6426 -3.4229 
27 1 4.80893 10.2172 12.5809 -3.25 
1 1 6.45789 14.229 10.4269 -3.154 
8 1 8.16243 12.0253 10.2423 -3.88206 
17 1 6.53956 12.4864 12.4596 -3.40326 
25 1 7.13678 10.4942 14.1319 -3.39843 
30 1 8.94118 14.2463 11.5102 -3.28652 
31 1 9.17206 12.0043 12.9489 -3.61132 
35 1 9.51875 10.5112 15.2619 -3.16839 
29 1 11.4757 13.0894 11.8902 -3.32442 
38 1 11.6102 10.9737 13.7119 -3.521 
43 1 10.7446 10.782 10.8074 -3.9631 
50 1 13.6375 11.2405 12.0532 -3.5123 
