/tmp/LAMMPS-d3e2656s/data.lammps (written by ASE) 

55 	 atoms 
1  atom types
5.39545 14.60455  xlo xhi
5.235399470164663 14.764600529835338  ylo yhi
3.4504769095636485 16.549523090436352  zlo zhi


Atoms 

     1   1 7.867550000 13.076189470 12.699656910
     2   1 10.291450000 12.604289470 13.994356910
     3   1 9.664190000 11.040889470 8.582476910
     4   1 10.850350000 7.222559470 13.202656910
     5   1 8.192250000 14.421889470 10.365156910
     6   1 8.427110000 10.947489470 14.406756910
     7   1 10.836950000 9.797899470 14.039256910
     8   1 8.669230000 8.647269470 12.900556910
     9   1 5.395450000 12.703489470 11.493056910
    10   1 6.733030000 10.500919470 12.467856910
    11   1 11.790850000 6.380059470 10.953656910
    12   1 11.162250000 9.108269470 11.135756910
    13   1 13.067450000 8.650849470 12.844856910
    14   1 12.266850000 11.456889470 12.664756910
    15   1 9.524900000 11.119989470 11.757656910
    16   1 7.424270000 11.904389470 10.105956910
    17   1 12.368750000 12.237389470 7.431836910
    18   1 14.569050000 11.011589470 8.502116910
    19   1 11.932850000 11.866989470 10.071956910
    20   1 13.980450000 10.350229470 10.954456910
    21   1 13.838750000 7.880089470 10.302056910
    22   1 10.432550000 13.624389470 11.567256910
    23   1 10.330250000 13.669089470 8.842856910
    24   1 12.647350000 6.425449470 8.364236910
    25   1 14.604550000 8.369679470 7.787436910
    26   1 12.390050000 9.564079470 8.581916910
    27   1 13.722750000 10.268399470 6.057366910
    28   1 9.071980000 12.105689470 4.938776910
    29   1 9.969140000 9.979889470 3.664666910
    30   1 6.680050000 9.732489470 7.952036910
    31   1 8.562910000 9.479219470 10.084756910
    32   1 10.769050000 8.676779470 5.771876910
    33   1 13.265050000 7.637459470 5.627616910
    34   1 8.506300000 5.235399470 6.363636910
    35   1 6.647610000 11.940689470 9.673256910
    36   1 11.760750000 11.350789470 5.854516910
    37   1 10.136360000 14.559389470 4.622656910
    38   1 8.821510000 7.256049470 4.774316910
    39   1 7.517930000 12.136389470 7.138046910
    40   1 8.039760000 14.547789470 6.030596910
    41   1 5.487070000 7.544219470 8.608756910
    42   1 9.679210000 10.375189470 7.610256910
    43   1 5.917360000 9.407319470 10.564956910
    44   1 6.908800000 5.412039470 8.249356910
    45   1 12.625450000 9.765989470 3.894456910
    46   1 10.884850000 6.220839470 6.735696910
    47   1 7.961690000 9.638089470 5.544466910
    48   1 7.440160000 6.982739470 10.292456910
    49   1 11.329250000 12.377189470 3.450476910
    50   1 6.492760000 7.234929470 6.153516910
    51   1 8.531930000 7.698309470 7.667396910
    52   1 9.598740000 5.611929470 9.121056910
    53   1 6.759239287 14.764600530 14.759782016
    54   1 7.851530670 7.787764443 15.530351372
    55   1 10.479959710 13.930483226 16.549523090
