/var/folders/35/zn93tsdx7p13vbrdj0l0gn9r0000gn/T/LAMMPS-mwjluux4/data.lammps (written by ASE) 

5 	 atoms 
1  atom types
0.0 10.000000000  xlo xhi
0.0 10.000000000  ylo yhi
0.0 10.000000000  zlo zhi


Atoms 

     1   1 5.489686137 3.902789149 4.047272818
     2   1 6.819361996 4.694019642 5.952727182
     3   1 4.903768079 6.097210851 5.331136779
     4   1 3.180638004 4.494868510 4.632478648
     5   1 5.489686137 3.902789149 4.047272818
