ITEM: TIMESTEP
2
ITEM: NUMBER OF ATOMS
5
ITEM: BOX BOUNDS pp pp pp
0 10
0 10
0 10
ITEM: ATOMS id type x y z c_pea 
4 1 3.18065 4.49487 4.63248 -1.61583 
1 1 nan nan nan 0 
5 1 nan nan nan 0 
2 1 6.81935 4.69402 5.95272 -1.61582 
3 1 4.90377 6.0972 5.33113 -2.17906 
