/tmp/LAMMPS-wsg_2s35/data.lammps (written by ASE) 

55 	 atoms 
1  atom types
4.9356100000000005 15.06439  xlo xhi
4.724755 15.275245  ylo yhi
4.921334999999999 15.078665  zlo zhi


Atoms 

     1   1 13.405590000 7.374045000 12.493765000
     2   1 10.899890000 6.089595000 12.684165000
     3   1 12.932190000 5.107025000 11.128865000
     4   1 10.599090000 4.724755000 10.315865000
     5   1 9.742190000 6.221295000 8.337775000
     6   1 12.383390000 9.879645000 11.679365000
     7   1 11.514690000 7.472225000 10.376065000
     8   1 13.779690000 9.832945000 13.842465000
     9   1 9.196870000 8.825595000 9.371855000
    10   1 5.259310000 10.963745000 9.882725000
    11   1 6.648260000 9.438015000 8.164445000
    12   1 6.203710000 7.003965000 11.968465000
    13   1 8.262640000 13.489445000 12.173365000
    14   1 7.220540000 9.235955000 11.099965000
    15   1 6.842590000 9.049135000 13.762665000
    16   1 7.102510000 6.969855000 9.040865000
    17   1 8.761060000 6.557635000 11.037765000
    18   1 4.935610000 8.218855000 9.891715000
    19   1 8.509140000 11.175945000 13.658065000
    20   1 10.300520000 11.670845000 11.608365000
    21   1 11.149990000 10.720545000 14.243565000
    22   1 8.465890000 6.929705000 13.661265000
    23   1 9.758250000 8.918815000 12.330765000
    24   1 9.204570000 8.995425000 15.078665000
    25   1 11.575190000 8.119875000 14.236965000
    26   1 10.318600000 13.299045000 13.801065000
    27   1 6.305180000 11.607545000 12.226265000
    28   1 11.933090000 13.743545000 10.911365000
    29   1 13.668990000 11.493245000 10.944765000
    30   1 14.844290000 9.062075000 11.078265000
    31   1 11.797090000 7.186995000 9.307865000
    32   1 14.689290000 7.580985000 8.868855000
    33   1 13.408190000 12.761045000 8.724695000
    34   1 10.934390000 11.512445000 9.825965000
    35   1 9.431540000 12.818045000 11.666165000
    36   1 9.725500000 15.085545000 10.279365000
    37   1 13.119390000 7.330025000 6.708445000
    38   1 6.907970000 13.579945000 6.930255000
    39   1 10.801290000 8.852305000 7.270285000
    40   1 6.258250000 11.410045000 8.229335000
    41   1 12.990990000 9.783045000 8.651745000
    42   1 14.248190000 11.503845000 6.616515000
    43   1 8.405840000 13.104745000 9.122165000
    44   1 13.164590000 5.172075000 8.610755000
    45   1 15.064390000 9.123085000 6.753495000
    46   1 10.997790000 13.952445000 8.319105000
    47   1 10.639390000 7.743935000 4.921335000
    48   1 12.662790000 9.653115000 5.437535000
    49   1 8.206800000 8.596795000 6.032255000
    50   1 7.319110000 11.264045000 5.650055000
    51   1 9.345690000 13.046045000 6.269555000
    52   1 8.631310000 5.942315000 5.732015000
    53   1 8.785040000 15.275245000 7.730435000
    54   1 11.563490000 11.622045000 6.999475000
    55   1 8.865510000 10.771745000 7.795565000
