ITEM: TIMESTEP
116
ITEM: NUMBER OF ATOMS
55
ITEM: BOX BOUNDS ss ss ss
3.72646 14.3601
5.88904 14.5023
4.75333 16.0046
ITEM: ATOMS id type x y z c_pea 
2 1 5.80706 6.13196 9.81231 -3.4091 
10 1 4.33814 7.87503 8.48362 -3.30189 
11 1 5.98805 6.11771 7.18998 -3.16012 
14 1 8.10837 7.378 6.11087 -3.44319 
19 1 7.1998 8.2686 8.49015 -3.82864 
20 1 5.62346 8.59636 6.21243 -3.41017 
22 1 7.60029 9.70649 4.75438 -3.36001 
24 1 8.3733 5.8899 8.45183 -3.31877 
3 1 12.5581 8.14296 8.37604 -3.44351 
4 1 10.2249 7.47137 9.72395 -3.69636 
8 1 9.96962 9.44381 7.76133 -3.90813 
15 1 10.5772 6.92213 7.03983 -3.2795 
16 1 12.1442 9.62898 6.21362 -3.26624 
17 1 10.1179 8.56435 4.97867 -3.16793 
50 1 11.6627 10.1668 10.051 -3.99196 
29 1 14.3588 9.0197 10.1076 -3.15576 
6 1 5.11137 10.4176 8.26031 -3.44479 
12 1 5.34664 11.1471 5.70177 -3.14985 
21 1 6.24213 12.9947 7.44358 -3.31452 
13 1 8.92333 13.27 6.9007 -3.4559 
18 1 7.42485 12.3852 4.95758 -3.13906 
23 1 7.67267 10.7525 7.28076 -3.8663 
30 1 7.96459 14.2464 9.23487 -3.31671 
47 1 6.7707 11.79 9.86679 -3.63643 
5 1 9.8151 11.126 5.38939 -3.43989 
28 1 10.5463 14.5014 8.54415 -3.14244 
36 1 11.375 11.9986 7.36307 -3.53824 
43 1 9.53876 12.0049 9.39604 -3.89258 
54 1 12.3115 12.9464 9.68152 -3.41376 
35 1 13.5855 10.7581 8.23499 -3.33087 
1 1 5.81099 9.04831 10.6918 -3.77639 
7 1 5.69193 6.61141 12.4781 -3.40711 
9 1 8.02063 6.88844 11.1123 -3.67903 
25 1 3.7278 7.483 11.0169 -2.99972 
27 1 6.05946 10.1648 15.0005 -3.16854 
33 1 4.62689 9.09608 13.0544 -3.29677 
34 1 7.55803 8.74715 13.0906 -3.88439 
44 1 7.70263 8.38361 16.0036 -3.12265 
46 1 5.6079 7.50411 14.9189 -3.14192 
26 1 7.95301 6.32259 14.0392 -3.30372 
53 1 8.50126 9.67729 10.4023 -3.86686 
38 1 9.92134 8.03832 14.7799 -3.41185 
48 1 10.3956 9.02661 12.2434 -3.81435 
52 1 10.2698 6.39408 12.5436 -3.33605 
32 1 12.2991 7.7003 13.8121 -3.14547 
51 1 12.4854 7.45216 11.1462 -3.42764 
40 1 13.2586 9.72301 12.4731 -3.41983 
45 1 6.53816 11.1679 12.5399 -3.50074 
49 1 7.61479 13.5241 11.7014 -3.09459 
31 1 8.69882 10.5661 14.7116 -3.36886 
37 1 10.1529 13.9734 11.1187 -3.31223 
39 1 11.3456 10.3642 14.3026 -3.27599 
41 1 9.26561 11.569 12.2875 -3.6634 
42 1 11.8712 12.0151 12.1684 -3.4415 
55 1 14.1839 11.5144 10.7589 -3.14078 
