/tmp/LAMMPS-5sywkx9t/data.lammps (written by ASE) 

55 	 atoms 
1  atom types
4.913900000000002 15.086099999999998  xlo xhi
5.395205 14.604795  ylo yhi
4.494065 15.505935000000001  zlo zhi


Atoms 

     1   1 11.842000000 8.858445000 14.814635000
     2   1 7.818210000 11.414795000 13.457435000
     3   1 13.098600000 8.763165000 12.229335000
     4   1 9.687400000 12.671495000 14.763435000
     5   1 9.284470000 10.013225000 15.371635000
     6   1 14.739000000 10.614795000 11.033435000
     7   1 9.613570000 13.092495000 12.050135000
     8   1 11.211600000 7.070015000 12.939835000
     9   1 8.721170000 10.557595000 11.026535000
    10   1 8.974260000 14.604795000 9.877335000
    11   1 9.478380000 7.403485000 15.096635000
    12   1 10.609400000 10.476295000 13.109835000
    13   1 11.737500000 11.372795000 15.505935000
    14   1 14.035100000 13.084395000 11.800335000
    15   1 11.918600000 13.120495000 13.316035000
    16   1 12.355500000 6.510245000 10.611735000
    17   1 6.094420000 6.233855000 9.301175000
    18   1 8.715890000 8.220535000 12.689835000
    19   1 6.552610000 10.629495000 9.168205000
    20   1 7.306640000 5.637605000 11.550535000
    21   1 7.196370000 12.731095000 10.873035000
    22   1 9.293840000 5.395205000 13.188835000
    23   1 5.729890000 7.577525000 12.285435000
    24   1 6.903470000 9.050855000 14.384335000
    25   1 6.112120000 10.151495000 11.847835000
    26   1 7.150030000 6.424855000 14.200835000
    27   1 4.913900000 8.549755000 9.937415000
    28   1 9.701100000 6.299365000 10.530435000
    29   1 11.932200000 11.066395000 5.255675000
    30   1 13.831600000 12.518295000 9.215005000
    31   1 9.726090000 11.562595000 6.843295000
    32   1 7.123150000 10.731095000 6.457055000
    33   1 15.086100000 10.294795000 8.392535000
    34   1 7.514700000 12.936495000 8.157455000
    35   1 6.356830000 8.340295000 7.664455000
    36   1 13.976800000 11.721795000 6.618155000
    37   1 9.964300000 12.263795000 9.387115000
    38   1 8.572060000 6.770335000 8.030495000
    39   1 7.987810000 13.053195000 5.424415000
    40   1 11.906300000 13.236295000 7.460875000
    41   1 11.758800000 13.964095000 10.429135000
    42   1 11.257600000 7.501875000 8.290555000
    43   1 13.379400000 9.013275000 6.718615000
    44   1 13.485100000 8.621515000 9.529315000
    45   1 11.951100000 10.508595000 8.282605000
    46   1 10.743600000 8.893375000 6.084825000
    47   1 10.543900000 13.281295000 4.978315000
    48   1 7.584020000 8.144995000 10.241935000
    49   1 8.243730000 8.441605000 5.812705000
    50   1 9.540140000 14.377795000 7.270525000
    51   1 9.194340000 10.712395000 4.494065000
    52   1 9.067290000 9.427225000 8.322875000
    53   1 11.794375334 11.293795000 11.103400011
    54   1 10.452962904 8.812705000 11.321057774
    55   1 14.153861763 10.989095000 12.747047215
