ITEM: TIMESTEP
50
ITEM: NUMBER OF ATOMS
55
ITEM: BOX BOUNDS pp pp pp
0 20
0 20
0 20
ITEM: ATOMS id type x y z c_pea 
53 1 7.1297 6.33573 6.78037 -3.15569 
54 1 9.70298 6.49718 7.43973 -3.42568 
55 1 5.83881 8.51994 6.41608 -3.15476 
1 1 7.27204 10.7002 6.54979 -3.32467 
2 1 9.69871 10.6241 5.21623 -3.18071 
3 1 8.49185 8.3161 5.55012 -3.28244 
4 1 9.47164 11.88 7.50662 -3.65525 
5 1 10.6882 9.119 7.32941 -3.77607 
6 1 12.117 11.2178 6.42556 -3.48264 
7 1 13.6279 9.10156 7.30014 -3.32118 
31 1 14.2871 11.7132 7.94482 -3.38039 
8 1 10.6758 13.1604 5.50214 -3.01509 
9 1 10.3668 14.4337 7.7657 -3.18303 
10 1 12.7741 13.8359 7.07319 -3.24935 
11 1 5.58236 7.25732 8.86628 -3.43093 
12 1 6.29677 6.59627 11.5609 -3.30717 
13 1 7.86843 5.96065 9.34563 -3.50483 
14 1 10.666 5.20009 9.89458 -3.22827 
15 1 8.69652 5.31471 11.6937 -3.1564 
16 1 9.9306 7.62205 10.1359 -3.89889 
17 1 12.1379 6.97682 8.33619 -3.44407 
18 1 12.6507 6.91155 11.0133 -3.51472 
19 1 14.5561 7.46715 9.27229 -3.12981 
20 1 5.43453 9.92039 8.68845 -3.40921 
21 1 7.37252 11.5501 9.36665 -3.58228 
22 1 4.61377 8.63476 10.9723 -3.17058 
23 1 5.74569 11.0465 11.4195 -3.42615 
24 1 7.28181 8.84902 10.593 -3.7859 
25 1 8.04105 8.67948 8.09898 -3.79924 
26 1 11.089 11.8526 11.7915 -3.88141 
27 1 9.78768 10.3426 9.74979 -3.87337 
28 1 14.2916 8.9517 11.6482 -3.4123 
29 1 12.4888 9.49349 9.64421 -3.93432 
30 1 15.389 9.82407 9.31611 -3.14017 
32 1 13.9814 11.5868 10.7648 -3.56514 
48 1 7.59965 13.0715 11.9559 -3.32834 
33 1 9.3586 13.2698 10.0174 -3.58705 
34 1 11.5896 14.804 10.0833 -3.30756 
35 1 11.812 12.2372 9.04977 -3.8828 
36 1 13.9775 13.9415 9.45841 -3.18458 
37 1 10.8892 6.24934 12.7324 -3.36204 
38 1 8.58093 7.74294 12.812 -3.67764 
39 1 10.4066 7.91958 14.7475 -3.16577 
40 1 6.18652 8.98754 13.1627 -3.42328 
41 1 6.59532 11.5406 13.9181 -3.16951 
42 1 11.1007 9.08377 12.1351 -3.87059 
43 1 8.58001 10.5909 12.247 -3.86685 
44 1 8.34128 9.71984 14.7861 -3.32533 
45 1 10.9134 10.4695 14.4898 -3.47545 
46 1 12.8406 8.10209 13.7472 -3.22491 
47 1 13.2215 10.8655 13.2397 -3.42576 
49 1 9.12905 12.4756 14.1363 -3.41844 
50 1 10.1957 14.2891 12.4115 -3.31698 
52 1 11.7641 13.0019 14.2108 -3.16614 
51 1 13.0029 13.7363 12.0311 -3.31588 
