/var/folders/35/zn93tsdx7p13vbrdj0l0gn9r0000gn/T/LAMMPS-gvrnq8dv/data.lammps (written by ASE) 

5 	 atoms 
1  atom types
0.0 10.000000000  xlo xhi
0.0 10.000000000  ylo yhi
0.0 10.000000000  zlo zhi


Atoms 

     1   1 3.728340042 6.110441194 5.928869189
     2   1 4.997300278 4.019993894 6.140441361
     3   1 6.271659958 3.870668352 4.048050412
     4   1 5.985801067 6.129331648 4.965403494
     5   1 4.016981226 4.822387270 3.859558639
