ITEM: TIMESTEP
2
ITEM: NUMBER OF ATOMS
5
ITEM: BOX BOUNDS pp pp pp
0 10
0 10
0 10
ITEM: ATOMS id type x y z c_pea 
5 1 4.01699 4.82238 3.85955 -2.76121 
3 1 6.27167 3.87067 4.04803 -2.57482 
4 1 5.9858 6.12933 4.9654 -2.76121 
2 1 4.99728 4.02 6.14046 -2.76121 
1 1 3.72834 6.11044 5.92888 -2.57482 
