/tmp/LAMMPS-t0qfltsi/data.lammps (written by ASE) 

55 	 atoms 
1  atom types
5.97669 14.02331  xlo xhi
3.123460000000001 16.87654  ylo yhi
5.246391368309514 14.753608631690486  zlo zhi


Atoms 

     1   1 11.437110000 14.439240000 12.261808632
     2   1 10.006210000 7.942110000 14.581108632
     3   1 10.081210000 10.875540000 14.753608632
     4   1 6.621920000 9.673240000 12.067008632
     5   1 10.120410000 12.105440000 11.797908632
     6   1 10.885410000 7.423490000 11.992508632
     7   1 7.861400000 7.365590000 12.811608632
     8   1 9.438950000 5.433390000 13.576508632
     9   1 7.135860000 4.878800000 11.800808632
    10   1 12.083710000 6.027830000 13.748608632
    11   1 12.985210000 5.799530000 11.025208632
    12   1 6.504440000 7.349210000 10.507808632
    13   1 13.964710000 10.440640000 11.776708632
    14   1 10.986110000 4.298970000 11.758108632
    15   1 11.620210000 9.878340000 10.800608632
    16   1 7.864500000 11.918440000 13.511608632
    17   1 9.142800000 5.986480000 10.522308632
    18   1 10.007510000 13.448040000 14.185508632
    19   1 12.028010000 9.446840000 13.606408632
    20   1 7.743550000 9.458440000 14.601608632
    21   1 13.707710000 7.799660000 12.563108632
    22   1 12.602510000 12.534740000 10.614808632
    23   1 7.332740000 11.969540000 10.886208632
    24   1 12.300910000 12.078240000 13.333408632
    25   1 9.298570000 9.680840000 12.450508632
    26   1 8.636950000 14.255840000 11.984508632
    27   1 8.797950000 3.123460000 12.637508632
    28   1 9.954710000 13.581940000 5.669658632
    29   1 8.917020000 13.226040000 8.180918632
    30   1 10.423410000 11.852940000 10.045688632
    31   1 14.023310000 8.267420000 9.937678632
    32   1 12.646910000 13.526440000 9.634888632
    33   1 5.976690000 8.969860000 9.082268632
    34   1 13.131510000 10.877860000 9.436558632
    35   1 11.127310000 14.920840000 7.717588632
    36   1 10.402810000 8.625470000 6.071108632
    37   1 7.508570000 15.456140000 9.337678632
    38   1 7.921640000 10.839630000 9.130838632
    39   1 8.584590000 15.541540000 6.894408632
    40   1 11.620910000 6.599500000 10.156828632
    41   1 10.438110000 9.818520000 8.311038632
    42   1 7.348330000 6.586780000 8.668758632
    43   1 7.334470000 13.260440000 6.004128632
    44   1 9.010740000 11.109710000 6.317888632
    45   1 12.252610000 16.196540000 9.814838632
    46   1 7.976240000 8.744430000 7.221068632
    47   1 12.382210000 8.155310000 7.999208632
    48   1 6.281620000 11.027360000 7.135038632
    49   1 6.170150000 13.403440000 8.425588632
    50   1 9.748310000 16.876540000 9.027218632
    51   1 9.931910000 6.964590000 8.142778632
    52   1 11.472310000 12.193340000 7.446808632
    53   1 12.649455376 13.640990728 5.246391368
    54   1 10.417084030 14.417055441 13.498384616
    55   1 11.320017097 14.523559128 9.423523711
