/var/folders/35/zn93tsdx7p13vbrdj0l0gn9r0000gn/T/LAMMPS-ayr4_8_1/data.lammps (written by ASE) 

5 	 atoms 
1  atom types
0.0 10.000000000  xlo xhi
0.0 10.000000000  ylo yhi
0.0 10.000000000  zlo zhi


Atoms 

     1   1 3.559048635 5.414499347 4.917815703
     2   1 4.461248090 3.174814272 5.359026721
     3   1 5.251692061 3.174814272 5.602948535
     4   1 4.758103017 6.825185728 4.397051465
     5   1 6.440951365 5.044702435 4.547476848
