/var/folders/35/zn93tsdx7p13vbrdj0l0gn9r0000gn/T/LAMMPS-u5tvreiv/data.lammps (written by ASE) 

5 	 atoms 
1  atom types
0.0 10.000000000  xlo xhi
0.0 10.000000000  ylo yhi
0.0 10.000000000  zlo zhi


Atoms 

     1   1 5.243952088 3.946239875 5.041265182
     2   1 3.714013635 5.712837133 5.791698108
     3   1 6.285986365 5.834876283 6.212597116
     4   1 5.243952088 3.946239875 5.041265182
     5   1 5.349165527 6.053760125 3.787402884
