/var/folders/35/zn93tsdx7p13vbrdj0l0gn9r0000gn/T/LAMMPS-aza0da3a/data.lammps (written by ASE) 

5 	 atoms 
1  atom types
0.0 10.000000000  xlo xhi
0.0 10.000000000  ylo yhi
0.0 10.000000000  zlo zhi


Atoms 

     1   1 6.128730512 6.240387416 5.324722142
     2   1 5.140229723 3.873450489 5.801827298
     3   1 3.871269488 5.929080537 6.236704062
     4   1 5.687677973 3.759612584 3.763295938
     5   1 4.468902601 5.887362210 3.873488273
