ITEM: TIMESTEP
22
ITEM: NUMBER OF ATOMS
5
ITEM: BOX BOUNDS pp pp pp
0 10
0 10
0 10
ITEM: ATOMS id type x y z c_pea 
4 1 6.08968 4.12283 3.71022 -2.57482 
5 1 4.10279 5.54989 3.91173 -2.76122 
2 1 4.8065 3.8796 5.7884 -2.7612 
3 1 4.0291 6.1531 6.2899 -2.57482 
1 1 6.26874 5.98448 5.29978 -2.7612 
