/var/folders/35/zn93tsdx7p13vbrdj0l0gn9r0000gn/T/LAMMPS-9ncu6qkz/data.lammps (written by ASE) 

5 	 atoms 
1  atom types
0.0 10.000000000  xlo xhi
0.0 10.000000000  ylo yhi
0.0 10.000000000  zlo zhi


Atoms 

     1   1 6.128142303 4.187475698 5.893418793
     2   1 5.690625157 5.812524302 4.106581207
     3   1 3.871857697 5.486336867 5.722266807
     4   1 6.128142303 4.187475698 5.893418793
     5   1 5.690625157 5.812524302 4.106581207
