/tmp/LAMMPS-p42awo32/data.lammps (written by ASE) 

55 	 atoms 
1  atom types
4.7009099999999995 15.29909  xlo xhi
5.184364999999998 14.815635000000002  ylo yhi
4.928865 15.071135  zlo zhi


Atoms 

     1   1 13.891090000 10.166335000 11.974635000
     2   1 11.182990000 11.063935000 11.111035000
     3   1 9.630280000 13.256535000 12.140535000
     4   1 13.584590000 12.420035000 10.590235000
     5   1 13.571590000 10.045635000 9.340715000
     6   1 12.307490000 12.519135000 12.899235000
     7   1 11.331990000 7.295215000 14.396635000
     8   1 11.878090000 5.908605000 12.067135000
     9   1 7.126410000 8.166665000 12.797635000
    10   1 8.589950000 7.551455000 15.071135000
    11   1 9.778460000 9.086025000 13.162435000
    12   1 7.681500000 10.090835000 14.588635000
    13   1 7.496190000 12.497435000 13.664535000
    14   1 11.763990000 8.450475000 11.426935000
    15   1 8.316620000 10.722835000 11.619735000
    16   1 5.899860000 10.763235000 12.365835000
    17   1 10.031330000 11.607635000 14.171535000
    18   1 7.042910000 13.216135000 11.181735000
    19   1 13.653390000 7.704305000 13.149435000
    20   1 12.242290000 9.944935000 14.004235000
    21   1 8.977700000 14.815635000 10.032335000
    22   1 11.387690000 13.834935000 10.269435000
    23   1 9.273470000 6.316755000 12.813435000
    24   1 13.998190000 7.574255000 10.483535000
    25   1 9.100750000 8.101525000 10.678735000
    26   1 11.684790000 6.443855000 9.400405000
    27   1 11.897290000 12.057635000 8.427855000
    28   1 8.806620000 8.414455000 5.513565000
    29   1 12.853790000 7.625205000 7.474775000
    30   1 10.142130000 7.761245000 7.929375000
    31   1 11.408790000 12.034335000 6.919835000
    32   1 13.719090000 10.394335000 6.809055000
    33   1 6.848380000 10.111235000 5.714545000
    34   1 15.299090000 8.069695000 6.906765000
    35   1 13.543690000 6.029035000 5.265355000
    36   1 11.218890000 9.580525000 5.884665000
    37   1 11.032090000 6.942975000 5.289835000
    38   1 11.654690000 5.184365000 7.122245000
    39   1 14.614490000 5.454515000 7.435005000
    40   1 10.170140000 5.295615000 9.323425000
    41   1 8.804370000 5.923275000 6.934525000
    42   1 13.487190000 8.521325000 4.928865000
    43   1 4.700910000 11.260835000 10.409635000
    44   1 6.071160000 8.852305000 10.165535000
    45   1 8.936530000 8.959505000 10.015235000
    46   1 7.824840000 6.571365000 9.606635000
    47   1 7.056640000 12.390635000 6.941825000
    48   1 5.609490000 13.177835000 8.993905000
    49   1 7.400850000 11.220935000 9.726235000
    50   1 5.465650000 10.472035000 7.985895000
    51   1 9.155200000 11.304235000 5.130675000
    52   1 9.335290000 13.519435000 6.648855000
    53   1 8.290680000 13.718935000 9.115115000
    54   1 9.071360000 10.551135000 7.607495000
    55   1 7.262670000 8.345675000 7.727875000
