/var/folders/35/zn93tsdx7p13vbrdj0l0gn9r0000gn/T/LAMMPS-ocsp33wb/data.lammps (written by ASE) 

55 	 atoms 
1  atom types
0.0 20.000000000  xlo xhi
0.0 20.000000000  ylo yhi
0.0 20.000000000  zlo zhi


Atoms 

     1   1 10.096856364 7.873502727 13.859694935
     2   1 8.664036364 10.255012727 13.688194935
     3   1 13.376756364 11.195222727 12.422194935
     4   1 12.383756364 8.667522727 12.526994935
     5   1 10.238656364 14.404622727 12.569694935
     6   1 7.588576364 7.912092727 12.880094935
     7   1 10.583056364 11.783122727 11.987394935
     8   1 8.003936364 12.588522727 12.302994935
     9   1 11.146956364 6.352582727 11.760794935
    10   1 13.815556364 6.854962727 11.292394935
    11   1 12.648756364 13.658322727 11.372594935
    12   1 9.761676364 8.917562727 11.508794935
    13   1 14.432756364 9.285222727 10.617994935
    14   1 7.014256364 10.155292727 11.520894935
    15   1 8.594106364 6.349602727 11.042094935
    16   1 11.948956364 10.209232727 10.237294935
    17   1 11.189456364 15.490622727 10.260594935
    18   1 14.049356364 11.981722727 9.851694935
    19   1 12.734756364 5.046312727 9.921494935
    20   1 9.045106364 13.930122727 10.151294935
    21   1 6.465086364 7.755052727 10.351194935
    22   1 8.954036364 11.023422727 9.859494935
    23   1 11.635756364 7.669712727 9.368554935
    24   1 6.720686364 12.645622727 9.868894935
    25   1 11.307056364 12.625422727 9.128244935
    26   1 10.195256364 5.323362727 9.221754935
    27   1 7.183873636 6.668487273 7.322262753
    28   1 8.979973636 7.365087273 5.578132753
    29   1 8.980403636 4.871407273 6.765092753
    30   1 11.237863636 5.812457273 5.919972753
    31   1 6.788923636 9.204567273 5.713682753
    32   1 7.319543636 11.943677273 5.381372753
    33   1 11.454063636 8.408877273 6.129272753
    34   1 9.329443636 10.004407273 5.264172753
    35   1 11.794263636 11.128977273 5.682582753
    36   1 13.549563636 9.470747273 7.318662753
    37   1 9.326333636 12.087277273 7.080892753
    38   1 9.827793636 12.497177273 4.394982753
    39   1 8.634503636 14.350577273 5.754922753
    40   1 11.326163636 13.772677273 6.301922753
    41   1 8.768553636 5.146497273 9.410982753
    42   1 10.054163636 7.156737273 8.212152753
    43   1 11.151263636 4.509377273 8.174522753
    44   1 12.916363636 6.584997273 7.918102753
    45   1 6.304743636 11.201577273 7.735282753
    46   1 5.567243636 8.604707273 7.966452753
    47   1 8.313123636 9.272057273 7.855372753
    48   1 10.981563636 10.220777273 8.168662753
    49   1 7.299683636 13.680277273 7.985592753
    50   1 9.744133636 14.970777273 8.136692753
    51   1 12.396363636 14.858077273 8.517212753
    52   1 13.073063636 12.223677273 7.772422753
    53   1 10.753852806 13.001522727 13.098044104
    54   1 11.023420383 10.405842727 13.941723452
    55   1 11.261345902 12.607222727 15.605017247
