ITEM: TIMESTEP
162
ITEM: NUMBER OF ATOMS
55
ITEM: BOX BOUNDS pp pp pp
0 20
0 20
0 20
ITEM: ATOMS id type x y z c_pea 
27 1 6.83977 6.92793 7.25083 -3.3868 
28 1 8.63665 7.18164 5.25346 -3.31809 
29 1 8.46816 4.88035 6.91258 -3.15003 
30 1 10.7371 5.57029 5.86663 -3.16997 
42 1 9.53524 7.23358 7.7444 -3.79544 
44 1 12.4876 6.67931 7.67327 -3.51294 
31 1 6.69145 9.22888 5.75438 -3.28043 
32 1 7.68152 11.8253 5.72439 -3.42849 
45 1 6.03425 11.4592 7.79479 -3.39758 
33 1 11.469 8.10774 5.69259 -3.40392 
34 1 9.39843 9.75108 5.51024 -3.60705 
47 1 8.02006 9.59746 7.98008 -3.87889 
35 1 12.0618 10.7706 5.77976 -3.42669 
36 1 13.5034 9.18538 7.67204 -3.42423 
49 1 7.557 13.6453 7.82804 -3.45894 
37 1 9.92241 12.0138 7.30928 -3.84787 
38 1 10.2007 12.1629 4.54831 -3.15573 
39 1 9.15046 14.163 5.7057 -3.1475 
40 1 11.8137 13.5724 6.31438 -3.32996 
21 1 7.004 7.64517 9.85225 -3.52931 
15 1 8.83096 6.89143 11.9279 -3.42625 
23 1 11.0817 7.2342 9.98336 -3.86503 
26 1 10.6646 4.98411 11.2464 -3.21777 
41 1 8.51255 5.49761 9.60391 -3.39529 
43 1 10.7363 4.69367 8.44347 -3.4171 
10 1 13.8603 7.68096 9.91683 -3.483 
19 1 12.9555 5.0919 9.80878 -3.15215 
46 1 5.32369 8.92197 8.05839 -3.16465 
14 1 6.25836 10.2639 10.2366 -3.51527 
12 1 9.13466 9.23774 10.6235 -3.93217 
22 1 8.58577 11.7628 9.66273 -3.78058 
48 1 10.8715 9.55941 8.01534 -3.8234 
52 1 12.8781 11.7736 8.13057 -3.63485 
16 1 12.1355 9.91462 10.3107 -3.819 
13 1 14.6715 10.2968 9.9926 -3.26351 
24 1 6.23556 12.9087 10.157 -3.14649 
17 1 10.8199 15.5224 10.5549 -3.15918 
20 1 8.42595 14.3803 10.3164 -3.34899 
25 1 11.1259 12.7897 9.975 -3.87393 
50 1 10.074 14.7143 8.13346 -3.48223 
18 1 14.1354 12.8814 10.1566 -3.19738 
11 1 12.5535 14.1418 11.8516 -3.3129 
51 1 12.6812 14.5789 8.77923 -3.27133 
9 1 12.8755 6.33494 12.0491 -3.17492 
6 1 6.95888 8.83564 12.309 -3.17251 
8 1 7.77573 11.5696 12.2391 -3.57587 
7 1 10.5145 11.1693 12.0923 -3.74229 
1 1 11.1307 8.23036 12.5325 -3.5774 
2 1 9.05135 9.39594 13.6525 -3.36885 
54 1 11.7908 10.2093 14.2078 -3.28606 
55 1 9.43671 11.8637 14.4521 -3.14081 
3 1 13.318 11.5329 12.2648 -3.51282 
4 1 13.7176 8.92136 12.3352 -3.32505 
5 1 9.80934 13.7413 12.4448 -3.47007 
53 1 11.7925 12.8566 14.0477 -3.16538 
