/var/folders/35/zn93tsdx7p13vbrdj0l0gn9r0000gn/T/LAMMPS-cppjx7yd/data.lammps (written by ASE) 

55 	 atoms 
1  atom types
0.0 20.000000000  xlo xhi
0.0 20.000000000  ylo yhi
0.0 20.000000000  zlo zhi


Atoms 

     1   1 6.984348364 6.254747636 7.752634000
     2   1 6.589398364 8.790827636 6.144054000
     3   1 7.194598364 7.001077636 10.270954000
     4   1 8.569028364 4.732757636 9.841354000
     5   1 6.105218364 10.787837636 8.165654000
     6   1 6.085798364 9.438487636 10.581754000
     7   1 8.212798364 11.077437636 10.056454000
     8   1 5.367718364 8.190967636 8.396824000
     9   1 8.113598364 8.858317636 8.285744000
    10   1 9.340558364 8.712117636 10.976454000
    11   1 5.980908364 12.291137636 10.716054000
    12   1 7.100158364 13.266537636 8.415964000
    13   1 10.931238364 14.405837636 11.405054000
    14   1 8.340468364 13.830937636 10.845154000
    15   1 11.364738364 7.576397636 12.693454000
    16   1 9.013418364 6.272737636 12.158554000
    17   1 7.294618364 8.112507636 12.746654000
    18   1 7.047458364 10.697437636 12.708254000
    19   1 10.631338364 11.619237636 15.028254000
    20   1 9.514128364 9.419327636 13.681554000
    21   1 12.256138364 9.832437636 14.017654000
    22   1 8.161128364 11.774537636 14.832454000
    23   1 7.089538364 13.328637636 13.035254000
    24   1 9.554158364 11.800337636 12.366254000
    25   1 9.600718364 13.938937636 13.787654000
    26   1 12.077138364 12.689037636 13.177554000
    27   1 8.367971636 6.817672364 6.284576000
    28   1 12.805881636 7.188722364 7.166816000
    29   1 7.509561636 9.202912364 7.046436000
    30   1 9.529651636 9.538212364 5.178516000
    31   1 10.312081636 8.235792364 7.292566000
    32   1 11.310581636 10.906742364 7.379686000
    33   1 8.630011636 11.666942364 6.445326000
    34   1 10.897981636 11.931542364 4.971746000
    35   1 12.183781636 9.317712364 5.426746000
    36   1 14.072381636 9.674072364 7.333746000
    37   1 13.373581636 11.757342364 5.793966000
    38   1 9.703021636 14.117642364 6.134126000
    39   1 11.927881636 13.643042364 7.211976000
    40   1 8.037391636 4.799272364 7.873776000
    41   1 10.415481636 5.780582364 8.260306000
    42   1 10.399081636 7.554922364 10.554366000
    43   1 12.612981636 6.053052364 9.657796000
    44   1 14.632281636 7.672712364 9.100146000
    45   1 13.219581636 7.940532364 11.510566000
    46   1 9.215131636 9.938002364 9.123386000
    47   1 11.783581636 11.431142364 10.146366000
    48   1 12.217781636 8.927042364 9.172326000
    49   1 14.488081636 10.158842364 10.102466000
    50   1 9.715311636 12.752642364 8.760756000
    51   1 9.787331636 15.267242364 8.715056000
    52   1 12.049781636 14.096142364 9.887766000
    53   1 13.790281636 12.191842364 8.440606000
    54   1 14.014681636 12.651842364 11.099166000
    55   1 13.383581636 10.435442364 12.530566000
