ITEM: TIMESTEP
118
ITEM: NUMBER OF ATOMS
55
ITEM: BOX BOUNDS pp pp pp
0 20
0 20
0 20
ITEM: ATOMS id type x y z c_pea 
2 1 6.48005 6.77953 6.26329 -3.13944 
27 1 8.84215 7.12119 5.26761 -3.20971 
40 1 8.40279 4.97287 6.85722 -3.17957 
31 1 11.1022 7.92239 6.33356 -3.577 
41 1 10.8314 5.65855 7.96543 -3.45118 
28 1 13.2318 6.76539 7.40836 -3.17525 
29 1 7.46068 9.27606 6.35696 -3.4582 
30 1 9.63617 9.76562 4.94319 -3.34801 
32 1 11.1223 10.626 7.19445 -3.8226 
33 1 8.54207 11.7285 6.60601 -3.57981 
35 1 12.2667 9.83203 4.8138 -3.15761 
36 1 13.5848 9.46185 7.22513 -3.52904 
37 1 13.2918 11.9218 5.83792 -3.15077 
34 1 10.7727 12.2731 5.07517 -3.35841 
38 1 9.30678 14.2369 6.34947 -3.16636 
39 1 11.8612 14.072 6.79538 -3.34399 
1 1 6.43178 5.66789 8.55576 -3.15758 
3 1 7.4519 7.25181 10.4853 -3.57837 
4 1 8.68929 4.86474 9.56805 -3.29416 
42 1 10.235 6.73291 10.6049 -3.63394 
9 1 8.74056 7.33714 8.02279 -3.82597 
43 1 12.6515 5.96255 9.90157 -3.15412 
44 1 14.3513 7.79076 9.48625 -3.11856 
5 1 6.51486 11.1666 8.39906 -3.43157 
6 1 6.63983 9.83128 10.7062 -3.53553 
8 1 6.10905 8.40981 8.43223 -3.40857 
7 1 8.54991 11.9104 10.5219 -3.78473 
10 1 9.3963 9.21652 11.4846 -3.91806 
46 1 8.91207 9.87444 8.76273 -3.88419 
47 1 11.4337 10.9558 10.6194 -3.98272 
48 1 11.5971 8.49567 8.97569 -3.92303 
45 1 12.4069 8.29596 11.5298 -3.62467 
49 1 13.9501 10.2421 9.85423 -3.38202 
11 1 6.16814 12.6872 10.7402 -3.21335 
12 1 7.58753 13.6233 8.38332 -3.43314 
13 1 10.6811 13.7524 11.3749 -3.70246 
14 1 8.27352 14.7026 10.6145 -3.24032 
50 1 10.2858 12.7848 8.64288 -3.84977 
51 1 9.87632 15.3852 8.63708 -3.21027 
52 1 12.2652 14.6437 9.39139 -3.19562 
53 1 13.0695 12.2364 8.41292 -3.53234 
54 1 13.3585 12.8389 11.023 -3.32818 
15 1 10.1666 7.4212 13.3057 -3.32028 
16 1 8.4688 5.69545 12.2828 -3.01091 
17 1 7.48315 8.12171 13.0268 -3.31797 
18 1 7.12715 10.8954 13.0194 -3.48926 
19 1 10.7688 11.6098 15.4568 -3.15741 
20 1 9.02693 9.58563 14.6189 -3.41067 
24 1 9.8071 11.5704 12.8988 -3.66656 
21 1 11.592 9.69688 13.6984 -3.47684 
55 1 13.7008 10.548 12.4081 -3.18329 
23 1 7.77451 13.5135 12.8432 -3.37894 
22 1 8.26088 12.1752 15.127 -3.15859 
25 1 10.086 13.9161 14.1543 -3.17333 
26 1 12.2818 12.5261 13.4257 -3.37312 
