/var/folders/35/zn93tsdx7p13vbrdj0l0gn9r0000gn/T/LAMMPS-cprce9wk/data.lammps (written by ASE) 

55 	 atoms 
1  atom types
0.0 20.000000000  xlo xhi
0.0 20.000000000  ylo yhi
0.0 20.000000000  zlo zhi


Atoms 

     1   1 8.813539182 8.543450000 6.557564273
     2   1 8.482969182 11.148300000 6.177744273
     3   1 7.981389182 5.024440000 9.227054273
     4   1 7.634839182 7.696030000 8.804964273
     5   1 9.821379182 6.222480000 7.803104273
     6   1 9.557809182 6.885730000 10.625854273
     7   1 6.443139182 9.778410000 7.590534273
     8   1 6.285799182 11.172500000 9.960654273
     9   1 5.514329182 8.611870000 10.152554273
    10   1 8.696649182 10.458400000 8.845194273
    11   1 5.758739182 13.825400000 9.885854273
    12   1 6.732599182 12.518600000 7.649284273
    13   1 7.246949182 15.104900000 8.290474273
    14   1 9.224259182 13.568700000 7.199414273
    15   1 9.594109182 15.599600000 9.062554273
    16   1 8.533439182 13.037600000 9.769054273
    17   1 6.813939182 6.504600000 11.246554273
    18   1 8.559919182 4.400400000 11.595054273
    19   1 8.738739182 6.558570000 13.203054273
    20   1 7.924519182 9.111350000 11.282754273
    21   1 7.249419182 10.953600000 14.010154273
    22   1 6.611599182 8.234320000 13.392654273
    23   1 5.456039182 10.258000000 12.269254273
    24   1 9.212649182 9.141100000 13.857254273
    25   1 9.717789182 11.670800000 14.720754273
    26   1 9.080029182 11.425900000 12.043254273
    27   1 6.654719182 12.815600000 12.142954273
    28   1 7.783149182 15.170500000 11.105554273
    29   1 8.850209182 13.764500000 13.280654273
    30   1 10.696660818 6.894345455 5.680695727
    31   1 10.225760818 5.233465455 7.752365727
    32   1 12.676060818 6.424185455 7.608795727
    33   1 10.731960818 8.087395455 7.920625727
    34   1 11.766160818 10.462215455 7.056395727
    35   1 10.248560818 11.850815455 5.279245727
    36   1 11.421160818 13.189715455 7.327175727
    37   1 11.914760818 4.868375455 9.766415727
    38   1 11.892660818 7.454145455 10.408895727
    39   1 14.317160818 6.536295455 9.547265727
    40   1 13.485660818 5.685005455 11.833795727
    41   1 10.717260818 10.121815455 9.655275727
    42   1 12.940760818 11.795315455 9.244475727
    43   1 14.409260818 8.301445455 11.568395727
    44   1 13.425360818 9.146735455 9.046145727
    45   1 14.543960818 10.995615455 11.270495727
    46   1 12.253360818 10.035685455 11.787295727
    47   1 10.364360818 12.841915455 9.955395727
    48   1 10.825360818 15.173815455 11.249595727
    49   1 12.546460818 14.465415455 9.424425727
    50   1 12.498660818 12.946515455 11.731995727
    51   1 10.773060818 5.637605455 12.173795727
    52   1 12.344160818 7.613605455 13.289395727
    53   1 10.953360818 9.625715455 14.384495727
    54   1 13.855560818 9.913025455 13.766395727
    55   1 12.145260818 11.952215455 14.140495727
