/var/folders/35/zn93tsdx7p13vbrdj0l0gn9r0000gn/T/LAMMPS-218c1uix/data.lammps (written by ASE) 

55 	 atoms 
1  atom types
0.0 20.000000000  xlo xhi
0.0 20.000000000  ylo yhi
0.0 20.000000000  zlo zhi


Atoms 

     1   1 10.229260000 9.747993455 15.277314818
     2   1 12.924560000 10.311793455 15.168414818
     3   1 7.631160000 9.345633455 14.488314818
     4   1 8.648780000 11.805693455 14.364914818
     5   1 12.014960000 8.135173455 14.009614818
     6   1 6.004240000 11.446193455 14.184214818
     7   1 11.307260000 11.928093455 13.920314818
     8   1 9.472520000 7.315023455 13.906414818
     9   1 14.031960000 12.061693455 13.523614818
    10   1 14.779260000 9.465563455 13.494014818
    11   1 14.043860000 6.837153455 13.172614818
    12   1 11.566760000 5.739453455 12.727614818
    13   1 9.941860000 9.619373455 12.615014818
    14   1 6.983650000 13.239193455 12.656714818
    15   1 5.220740000 9.707153455 12.585014818
    16   1 7.232200000 7.864773455 12.370114818
    17   1 12.571960000 10.160693455 12.182714818
    18   1 9.593440000 12.596993455 11.901114818
    19   1 7.601700000 10.668393455 11.957614818
    20   1 12.372760000 12.799393455 11.482314818
    21   1 9.284360000 6.298023455 11.411314818
    22   1 14.591460000 8.304993455 11.129914818
    23   1 14.677060000 11.262893455 11.088214818
    24   1 11.754060000 7.815663455 11.071614818
    25   1 13.633960000 5.518473455 10.985714818
    26   1 5.706020000 11.944593455 10.608214818
    27   1 7.719080000 14.211893455 10.395514818
    28   1 9.402686727 10.893010000 4.722685182
    29   1 7.724036727 6.592040000 7.556265182
    30   1 10.132286727 5.573610000 8.091845182
    31   1 9.731386727 6.735410000 5.705185182
    32   1 12.153286727 6.495160000 6.442975182
    33   1 6.581016727 9.037310000 8.161695182
    34   1 10.704386727 8.275420000 7.963465182
    35   1 8.616126727 8.993510000 6.393815182
    36   1 11.291786727 9.037910000 5.473725182
    37   1 13.506186727 8.574690000 7.304495182
    38   1 7.483436727 11.340810000 6.694685182
    39   1 10.448286727 11.422510000 7.033085182
    40   1 9.004416727 13.269310000 5.772715182
    41   1 10.543686727 14.368510000 7.591435182
    42   1 8.263596727 13.246610000 8.414655182
    43   1 13.022086727 10.907110000 6.310775182
    44   1 12.886386727 12.947810000 7.919795182
    45   1 14.631686727 10.910310000 8.564885182
    46   1 8.062546727 5.121990000 9.974895182
    47   1 12.586886727 6.624560000 9.131275182
    48   1 6.101766727 6.959380000 9.730705182
    49   1 8.708406727 7.730140000 9.790305182
    50   1 8.891216727 10.367810000 9.086045182
    51   1 12.176086727 10.371210000 9.029695182
    52   1 14.192486727 8.569090000 9.871305182
    53   1 6.322756727 11.506110000 9.116885182
    54   1 10.672286727 12.573010000 9.614095182
    55   1 12.162486727 14.878010000 9.597055182
