ITEM: TIMESTEP
110
ITEM: NUMBER OF ATOMS
55
ITEM: BOX BOUNDS ss ss ss
5.20866 14.862
4.35625 15.4755
5.89368 15.0223
ITEM: ATOMS id type x y z c_pea 
32 1 9.88134 4.71582 9.80191 -3.40359 
47 1 7.34818 4.74544 8.93631 -3.21092 
50 1 8.07402 6.14137 6.70535 -3.20191 
55 1 5.93206 6.94375 8.1487 -3.3044 
42 1 6.48156 9.0219 9.84708 -3.67111 
45 1 7.64951 8.79585 7.00559 -3.65117 
53 1 5.20971 9.55435 7.6071 -3.04686 
40 1 8.50619 7.13025 9.19595 -3.82537 
29 1 12.5621 7.52908 7.68178 -3.49041 
38 1 12.6073 5.37113 9.58409 -3.24088 
43 1 10.0821 7.94299 5.89467 -3.28599 
49 1 10.5283 5.95281 7.63813 -3.39576 
31 1 10.244 9.05136 8.24362 -3.80027 
9 1 14.132 7.78004 9.84219 -3.41302 
39 1 14.5071 9.32214 7.72683 -3.15313 
44 1 12.1055 9.85217 6.41087 -3.40271 
8 1 11.2398 7.38605 10.2812 -3.87444 
33 1 5.70096 11.6091 9.20267 -3.32415 
37 1 9.39963 10.6752 6.09862 -3.42851 
54 1 8.30822 10.9708 8.7689 -3.88283 
30 1 6.35068 13.779 7.90359 -3.05536 
36 1 7.84855 13.3038 10.0955 -3.6019 
46 1 6.76182 11.4631 6.62339 -3.32776 
48 1 8.7884 13.2451 7.24289 -3.43628 
51 1 8.22775 15.4743 8.70377 -2.97779 
14 1 12.8509 12.9601 9.69803 -3.38944 
34 1 12.4337 9.9821 9.62508 -3.95297 
35 1 13.6909 11.7029 7.58985 -3.14773 
52 1 11.0062 11.8211 7.97281 -3.67468 
41 1 10.4405 14.1515 9.29244 -3.46562 
15 1 14.8609 10.8589 9.89868 -3.24909 
3 1 9.08864 6.80281 11.9604 -3.81115 
19 1 8.72221 7.76521 14.5058 -3.35065 
20 1 9.2215 5.00292 13.9799 -3.15377 
25 1 6.40566 6.40911 10.8581 -3.47246 
26 1 8.02381 4.3574 11.6403 -3.29412 
28 1 6.89465 6.02697 13.4774 -3.15727 
12 1 6.95169 8.55499 12.5541 -3.46764 
23 1 9.1345 9.30739 10.888 -3.82332 
5 1 11.1465 4.9088 12.0231 -3.37648 
17 1 13.1923 6.68462 12.0669 -3.43772 
24 1 11.1514 6.86707 13.8953 -3.47708 
2 1 11.5619 9.28018 12.3956 -3.96815 
7 1 14.287 9.26113 12.0516 -3.43857 
10 1 13.4074 8.09872 14.3366 -3.13331 
18 1 11.008 9.35612 15.0213 -3.31236 
6 1 7.17367 11.1346 11.5368 -3.50913 
22 1 8.97278 10.2624 13.4295 -3.54666 
21 1 8.87425 13.0171 12.6395 -3.34609 
27 1 9.16821 15.2846 11.2527 -3.01762 
13 1 13.3032 10.5993 14.3216 -3.13607 
16 1 10.3771 11.7115 10.7993 -3.95614 
1 1 11.3758 13.9426 11.8847 -3.31953 
4 1 13.1117 11.6923 11.9181 -3.52453 
11 1 11.069 11.8632 13.6818 -3.4283 
