/tmp/LAMMPS-dei7xyhb/data.lammps (written by ASE) 

55 	 atoms 
1  atom types
5.182221995437438 14.817778004562562  xlo xhi
4.591355861536299 15.4086441384637  ylo yhi
4.384544159479216 15.615455840520784  zlo zhi


Atoms 

     1   1 10.669473018 6.744921593 5.010270168
     2   1 6.489952095 9.651067156 7.245330202
     3   1 9.754388895 15.158142739 12.272593473
     4   1 13.394084921 10.610958793 13.261614586
     5   1 6.507143471 11.528858199 10.018373083
     6   1 6.474197783 9.017810438 11.274623559
     7   1 8.753074263 12.694653490 5.789705400
     8   1 9.194783057 12.994981224 7.135716782
     9   1 5.419319473 8.178371310 7.866439513
    10   1 12.656807328 9.491171790 15.615455841
    11   1 9.197760332 8.801723259 10.442779613
    12   1 12.748204168 9.859020075 12.715551537
    13   1 10.795008265 7.360057953 8.907106775
    14   1 9.412847474 11.330552941 8.734642187
    15   1 9.817241453 10.120967663 13.630224885
    16   1 13.088908314 8.491918387 6.458761155
    17   1 13.945276482 10.606392874 14.554787400
    18   1 7.679966371 9.382638467 7.796411697
    19   1 8.419787232 5.990269532 11.380717215
    20   1 14.274885594 13.664754932 7.151908633
    21   1 14.550601240 11.653450585 6.922563308
    22   1 13.532171162 13.344725647 6.546338672
    23   1 9.687512268 8.080515281 5.517962847
    24   1 13.832802987 12.515334547 5.589503964
    25   1 8.649144148 14.314846172 7.951963930
    26   1 10.478731651 11.935575622 11.082844348
    27   1 14.064725329 10.018800116 10.238052483
    28   1 14.660763922 8.555078335 9.070147400
    29   1 14.482409394 13.189276302 9.063869894
    30   1 8.948483198 15.393652391 9.924479093
    31   1 8.055225043 6.305941816 9.645977063
    32   1 13.710898211 8.693521308 14.161566828
    33   1 8.872636483 4.710716331 9.882181219
    34   1 13.277803929 13.042526919 9.145839075
    35   1 9.001894031 4.847395561 7.406689845
    36   1 12.950519356 11.909242344 14.283017894
    37   1 9.098728593 4.591355862 11.338301818
    38   1 11.513668824 6.497325356 13.345534151
    39   1 7.004936587 10.431166821 14.183065723
    40   1 14.817778005 7.582991735 7.457391927
    41   1 5.962048622 6.394166012 10.310120657
    42   1 9.023073025 9.694335281 12.820745823
    43   1 10.105085038 11.261570239 14.826325622
    44   1 14.260033379 7.434059337 9.620406717
    45   1 12.585361373 5.525416866 13.175512948
    46   1 9.369729077 7.662112457 8.966531308
    47   1 12.408155843 15.408644138 12.066289422
    48   1 11.347542372 8.838670894 4.384544159
    49   1 8.961739896 8.086982688 9.707147994
    50   1 14.122168963 7.392437707 8.289490560
    51   1 5.182221995 10.939082763 10.158203159
    52   1 13.689086028 13.892691656 12.331642160
    53   1 11.866487782 7.663760392 4.807985453
    54   1 9.984471849 12.144216880 4.796350395
    55   1 14.267229773 9.018391423 11.371561261
