ITEM: TIMESTEP
150
ITEM: NUMBER OF ATOMS
55
ITEM: BOX BOUNDS pp pp pp
0 20
0 20
0 20
ITEM: ATOMS id type x y z c_pea 
3 1 9.2531 6.37157 3.80189 -3.17845 
9 1 9.25802 9.03158 3.40846 -3.2668 
5 1 6.96011 7.62943 4.07339 -3.41885 
1 1 4.81067 6.50863 5.49563 -3.13364 
2 1 7.24724 5.37078 5.46012 -3.35434 
16 1 5.33333 5.53211 7.74837 -3.11795 
17 1 6.92126 7.69533 6.90952 -3.88381 
19 1 7.79589 4.92617 7.95338 -3.13647 
4 1 11.5484 7.38483 4.67157 -3.26034 
20 1 9.85057 5.44697 6.18217 -3.33308 
22 1 11.9193 6.79441 7.22578 -3.42061 
43 1 2.99041 9.96031 6.69403 -3.11986 
7 1 7.28001 10.2033 4.81072 -3.60427 
15 1 4.4772 8.12904 7.96998 -3.53192 
6 1 4.89186 9.0423 5.20794 -3.40224 
12 1 4.6833 11.7319 5.49631 -3.31855 
24 1 6.04305 10.4148 7.41747 -3.94126 
10 1 11.1735 10.02 4.83362 -3.36795 
11 1 11.7433 11.7224 6.77052 -3.48647 
14 1 9.42156 11.9158 4.44089 -3.19709 
27 1 9.367 8.13308 5.96691 -3.84437 
29 1 9.09777 10.7861 6.77315 -3.80556 
31 1 13.0806 9.16922 6.38044 -3.28343 
36 1 2.79631 12.4441 7.12324 -2.82477 
13 1 7.18565 12.7157 5.83427 -3.53999 
38 1 7.38835 14.841 7.34536 -3.15686 
35 1 5.18002 13.1614 7.85245 -3.55217 
40 1 9.72758 13.4723 6.82784 -3.52613 
18 1 6.74572 6.94583 9.53503 -3.44248 
21 1 9.41022 6.85413 8.5341 -3.65392 
44 1 11.6161 7.16649 10.0194 -3.44121 
45 1 8.8448 7.71162 11.1403 -3.46523 
23 1 3.85651 10.9105 8.95393 -3.32835 
26 1 5.79758 9.39224 10.0561 -3.42323 
46 1 7.95735 10.5788 11.2808 -3.6245 
28 1 8.27545 9.32308 8.92945 -3.86911 
33 1 11.0222 9.21698 8.09187 -3.8891 
39 1 10.1805 11.8367 9.41692 -3.91478 
48 1 10.6729 9.65325 10.8635 -3.79653 
30 1 13.6713 8.20334 8.72238 -3.16933 
32 1 13.0533 10.8143 8.8935 -3.47449 
49 1 13.2676 9.13753 11.1449 -3.32969 
51 1 12.4657 11.8741 11.1946 -3.41859 
34 1 7.67841 12.34 8.6385 -3.8361 
37 1 6.53836 14.607 9.75791 -3.14966 
52 1 5.74837 12.0995 10.4504 -3.37613 
41 1 9.32502 14.64 9.17999 -3.41728 
42 1 11.9837 13.5323 8.77713 -3.23769 
53 1 8.23268 13.2707 11.2542 -3.42991 
55 1 10.8812 13.9736 11.1694 -3.16906 
8 1 11.3219 7.60846 12.6115 -3.27685 
47 1 9.32262 9.32109 13.3091 -3.28708 
54 1 10.0859 11.8303 12.5545 -3.43018 
25 1 11.0447 8.53005 14.9402 -2.57274 
50 1 12.0409 10.1532 13.3135 -3.28128 
