ITEM: TIMESTEP
174
ITEM: NUMBER OF ATOMS
55
ITEM: BOX BOUNDS pp pp pp
0 20
0 20
0 20
ITEM: ATOMS id type x y z c_pea 
2 1 8.40192 7.61552 7.00333 -3.33339 
39 1 10.8361 7.16291 5.99898 -3.16249 
32 1 12.7466 7.37619 7.88215 -3.29809 
13 1 6.6579 11.9028 7.62917 -3.26608 
23 1 7.38336 9.92887 6.17804 -3.1917 
11 1 9.38558 11.6578 7.45101 -3.85724 
28 1 9.76716 9.55624 5.30029 -3.41786 
4 1 11.2312 11.7672 5.2839 -3.48175 
36 1 10.5002 9.15053 7.90773 -3.85704 
7 1 12.3486 11.5004 7.82884 -3.91117 
53 1 12.4922 9.28811 6.03835 -3.45163 
55 1 13.8992 11.3375 5.44896 -3.11105 
42 1 7.78709 14.113 6.87865 -3.16536 
50 1 8.4417 12.1655 5.12804 -3.22711 
26 1 10.2801 14.1125 6.30228 -3.47596 
5 1 11.9465 15.7939 7.72471 -3.17134 
20 1 12.9195 13.7403 6.32907 -3.39325 
19 1 15.1038 12.558 7.25946 -3.12774 
33 1 7.78051 6.9158 9.64873 -3.34231 
24 1 10.2543 6.34133 8.49663 -3.46907 
15 1 9.71637 5.61456 11.0538 -3.15611 
6 1 12.109 6.56444 10.455 -3.34442 
8 1 6.34833 8.77698 11.1125 -3.35673 
46 1 7.8634 9.56287 8.87095 -3.74651 
43 1 6.65946 11.4151 10.3153 -3.39823 
52 1 9.91215 11.2206 10.1238 -3.95254 
48 1 9.91343 8.3062 10.4997 -3.8573 
44 1 12.5338 9.20247 9.76805 -3.73611 
49 1 14.8774 9.83008 10.9099 -3.36063 
47 1 12.9074 11.8277 10.5892 -3.86841 
34 1 14.4859 9.98494 8.02196 -3.43803 
40 1 8.1779 13.3946 9.43091 -3.60069 
10 1 9.41056 15.6989 8.46106 -3.29716 
21 1 11.6833 15.6933 10.3714 -3.27666 
31 1 10.9464 13.5517 9.00474 -3.83054 
45 1 9.21822 15.1365 11.0601 -3.12527 
29 1 10.8614 13.2652 11.8587 -3.67175 
9 1 15.4509 12.0995 9.70492 -3.24088 
30 1 13.4566 14.2057 11.702 -3.25529 
54 1 13.6567 14.0828 9.00494 -3.56998 
1 1 10.8508 7.35747 12.9234 -3.48519 
18 1 8.15269 7.23364 12.4371 -3.43873 
38 1 6.63313 8.83966 13.8672 -3.15494 
3 1 7.64807 11.1865 14.5674 -3.14164 
16 1 5.88173 11.0425 12.7205 -3.12432 
17 1 8.47205 10.0589 12.1401 -3.81406 
12 1 10.138 11.5856 13.9964 -3.45235 
35 1 9.30959 8.97163 14.4443 -3.40202 
22 1 11.9528 9.42478 14.5987 -3.22161 
41 1 11.4441 10.072 12.1768 -3.82232 
51 1 13.318 8.0436 12.2886 -3.31146 
14 1 14.2467 10.1012 13.4978 -3.1671 
37 1 8.18147 12.7492 12.2224 -3.54342 
25 1 12.7317 12.1959 13.5237 -3.41002 
27 1 15.1204 12.2373 12.2799 -3.17373 
