/var/folders/35/zn93tsdx7p13vbrdj0l0gn9r0000gn/T/LAMMPS-aqxmgl6v/data.lammps (written by ASE) 

55 	 atoms 
1  atom types
0.0 20.000000000  xlo xhi
0.0 20.000000000  ylo yhi
0.0 20.000000000  zlo zhi


Atoms 

     1   1 11.295755000 8.756520000 15.360777636
     2   1 6.999065000 10.537200000 15.358977636
     3   1 8.649595000 8.314860000 15.222277636
     4   1 9.487475000 10.926200000 14.774777636
     5   1 5.969385000 8.196520000 14.659277636
     6   1 12.081555000 11.525000000 14.288477636
     7   1 13.587455000 9.423360000 14.250077636
     8   1 10.174555000 6.698450000 13.687377636
     9   1 5.222245000 10.405400000 13.521177636
    10   1 7.473355000 6.586700000 13.216877636
    11   1 12.641355000 7.375000000 13.039277636
    12   1 14.463355000 11.559200000 13.033677636
    13   1 7.527045000 12.102400000 13.013677636
    14   1 10.775955000 9.411780000 12.943277636
    15   1 7.804275000 9.410610000 12.925377636
    16   1 10.207255000 12.608500000 12.637777636
    17   1 12.806555000 13.536400000 12.466677636
    18   1 5.668975000 8.141150000 11.905977636
    19   1 8.567105000 14.487700000 11.851177636
    20   1 9.021605000 4.964300000 11.820377636
    21   1 14.200655000 9.159200000 11.656977636
    22   1 12.237955000 11.164800000 11.351577636
    23   1 9.227355000 7.656460000 11.271277636
    24   1 11.414955000 5.905190000 11.210277636
    25   1 11.030755000 15.035700000 11.150777636
    26   1 5.988515000 10.779300000 11.112377636
    27   1 9.235295000 10.572700000 10.903277636
    28   1 11.847855000 8.543120000 10.526367636
    29   1 14.777755000 11.431800000 10.456827636
    30   1 7.083735000 6.276910000 10.429417636
    31   1 7.338772091 7.397640545 7.456482364
    32   1 9.490922091 6.032150545 6.684272364
    33   1 11.774082091 7.638250545 6.443912364
    34   1 9.702542091 8.154140545 8.408012364
    35   1 7.685172091 9.996090545 6.802242364
    36   1 10.766982091 10.194770545 7.070892364
    37   1 9.331572091 8.419810545 5.484182364
    38   1 11.635282091 9.622650545 4.639222364
    39   1 9.485452091 11.357960545 5.163412364
    40   1 13.408082091 10.038280545 6.935402364
    41   1 12.190882091 11.999060545 5.530002364
    42   1 7.892822091 12.607160545 6.991752364
    43   1 10.546682091 12.982060545 7.361652364
    44   1 13.410982091 12.654060545 7.835682364
    45   1 6.044912091 6.755240545 9.603722364
    46   1 11.321882091 5.915580545 8.488062364
    47   1 8.678342091 5.672380545 9.318882364
    48   1 6.480022091 9.476950545 9.227832364
    49   1 6.552062091 12.205060545 9.413342364
    50   1 11.815882091 11.285660545 9.307582364
    51   1 8.952922091 11.030960545 8.944072364
    52   1 12.424882091 8.439790545 8.992562364
    53   1 14.306982091 10.419260545 9.538822364
    54   1 11.637282091 14.069460545 9.627132364
    55   1 8.720542091 13.916660545 9.192422364
