ITEM: TIMESTEP
156
ITEM: NUMBER OF ATOMS
55
ITEM: BOX BOUNDS ss ss ss
5.32171 15.2471
4.96865 14.864
5.15548 15.1272
ITEM: ATOMS id type x y z c_pea 
53 1 7.15063 8.34462 8.50572 -3.54538 
10 1 9.91649 9.06439 8.22709 -3.81685 
19 1 8.74122 7.4772 6.5097 -3.19598 
52 1 7.83432 5.85198 8.53881 -3.16135 
20 1 10.4219 6.27892 8.42812 -3.54813 
23 1 11.4101 7.54323 6.21296 -3.38438 
5 1 14.2101 7.27925 6.4678 -3.15762 
6 1 12.7875 9.09996 7.84662 -3.6699 
15 1 13.1792 9.29198 5.15658 -3.15058 
18 1 15.2262 7.99951 8.88153 -3.17757 
21 1 13.0334 6.53157 8.78526 -3.4184 
9 1 15.246 9.75003 6.97864 -3.15749 
11 1 7.96346 10.2195 6.57437 -3.45824 
50 1 6.19445 10.8915 8.64643 -3.40469 
16 1 7.02834 12.8964 7.21686 -3.14413 
49 1 7.42389 13.0661 9.97641 -3.62575 
4 1 9.08546 14.4082 8.14569 -3.31591 
12 1 9.24717 11.7908 8.35224 -3.73608 
13 1 9.12622 12.6083 5.78771 -3.13673 
14 1 10.8328 10.4844 6.14071 -3.64186 
17 1 11.3646 13.1864 7.03486 -3.43052 
2 1 13.7824 12.9917 8.64631 -3.16643 
7 1 13.3709 11.5178 6.5801 -3.3422 
8 1 11.7694 11.2969 9.12521 -3.83432 
1 1 14.3086 10.3958 9.71365 -3.56103 
3 1 11.4165 14.1471 9.51032 -3.50056 
51 1 6.91662 6.52703 10.9792 -3.25834 
42 1 9.11514 4.96958 10.6263 -3.1534 
44 1 5.32286 9.73495 13.189 -3.14702 
45 1 7.64054 8.5498 12.7305 -3.6785 
46 1 5.75011 8.95486 10.6991 -3.3716 
32 1 9.42303 6.47574 12.8421 -3.34044 
33 1 10.2371 9.84599 12.4164 -3.91031 
39 1 9.535 8.52862 14.6654 -3.32922 
41 1 9.19768 7.67807 10.4917 -3.75825 
30 1 11.8326 7.70213 13.0428 -3.46245 
22 1 11.5393 6.02137 11.0024 -3.4361 
24 1 11.7388 8.70722 10.332 -3.78787 
40 1 11.9065 9.78035 14.6664 -3.1633 
55 1 13.951 7.6766 11.1585 -3.27441 
31 1 7.19393 10.1465 15.0384 -3.30706 
34 1 7.53062 12.8802 15.1261 -3.1398 
35 1 7.87311 11.4141 12.7852 -3.81882 
36 1 5.42488 12.1699 13.9308 -3.13207 
37 1 6.94589 13.9045 12.5154 -3.32135 
43 1 5.58699 11.6097 11.2734 -3.43894 
25 1 9.4393 13.7135 13.4977 -3.45491 
28 1 10.074 12.3402 11.129 -3.90946 
38 1 9.66139 11.2417 14.9302 -3.46235 
47 1 9.13136 14.8631 10.9602 -3.32632 
48 1 8.16435 10.235 10.3579 -3.87948 
26 1 11.5444 14.5425 12.1257 -3.16097 
27 1 11.7076 12.1509 13.4262 -3.46654 
29 1 13.1166 10.0827 12.235 -3.51061 
54 1 13.0959 12.5741 11.1557 -3.43594 
