/var/folders/35/zn93tsdx7p13vbrdj0l0gn9r0000gn/T/LAMMPS-z6x4oczr/data.lammps (written by ASE) 

5 	 atoms 
1  atom types
0.0 10.000000000  xlo xhi
0.0 10.000000000  ylo yhi
0.0 10.000000000  zlo zhi


Atoms 

     1   1 4.756892024 6.156926958 5.257139495
     2   1 3.641214768 4.554584617 3.769670269
     3   1 3.899567834 3.843073042 6.104597913
     4   1 6.358785232 4.753735749 4.050213249
     5   1 5.693582460 3.843073042 6.230329731
