ITEM: TIMESTEP
26
ITEM: NUMBER OF ATOMS
5
ITEM: BOX BOUNDS pp pp pp
0 10
0 10
0 10
ITEM: ATOMS id type x y z c_pea 
2 1 4.08678 4.10032 3.90989 -2.76125 
4 1 6.34888 5.05343 3.90361 -2.57482 
3 1 3.39144 4.20726 6.26162 -2.57482 
5 1 5.76249 3.70763 5.87061 -2.76118 
1 1 4.76045 6.08275 5.46622 -2.76119 
