/tmp/LAMMPS-a8n6eyag/data.lammps (written by ASE) 

55 	 atoms 
1  atom types
5.23822 14.76178  xlo xhi
5.117249999999999 14.882750000000001  ylo yhi
4.87577 15.12423  zlo zhi


Atoms 

     1   1 6.910670000 13.712150000 11.292630000
     2   1 7.361030000 7.364840000 13.516030000
     3   1 8.528840000 14.036250000 13.367330000
     4   1 5.391410000 11.302250000 11.064330000
     5   1 8.807990000 12.242050000 15.124230000
     6   1 9.904680000 7.845910000 14.035030000
     7   1 9.123740000 5.449870000 12.441930000
     8   1 9.332180000 11.446250000 12.465830000
     9   1 6.776460000 6.601680000 11.207930000
    10   1 11.100180000 13.102750000 13.751230000
    11   1 9.766180000 13.765950000 11.038130000
    12   1 7.580910000 9.492940000 11.600830000
    13   1 9.517980000 7.617780000 11.248430000
    14   1 8.010650000 9.785840000 14.410730000
    15   1 10.694980000 10.444520000 14.781130000
    16   1 12.514480000 8.423620000 14.490030000
    17   1 11.365580000 9.527560000 12.246230000
    18   1 13.151080000 10.936650000 13.758930000
    19   1 5.238220000 8.670870000 10.564230000
    20   1 6.749870000 11.890150000 13.289930000
    21   1 6.023860000 10.323120000 8.576580000
    22   1 7.593780000 8.138030000 9.130300000
    23   1 5.688490000 13.081650000 8.965860000
    24   1 8.278260000 14.268250000 8.799080000
    25   1 7.907730000 11.665950000 9.894290000
    26   1 6.471810000 14.882750000 7.072130000
    27   1 5.525140000 9.383790000 13.149830000
    28   1 13.105880000 10.389650000 13.540230000
    29   1 8.041560000 10.819050000 7.818360000
    30   1 11.451880000 10.783050000 11.143450000
    31   1 14.761780000 7.540580000 10.363100000
    32   1 10.796280000 8.284300000 9.176520000
    33   1 10.731080000 10.824550000 8.434070000
    34   1 8.323790000 13.628850000 7.943800000
    35   1 11.025680000 13.535650000 8.255360000
    36   1 14.434780000 10.197250000 11.207140000
    37   1 12.627780000 11.602150000 6.815840000
    38   1 13.307280000 9.560400000 8.927810000
    39   1 11.436880000 13.659450000 10.946320000
    40   1 12.201080000 8.824570000 6.609710000
    41   1 13.157080000 12.187950000 9.422570000
    42   1 9.875250000 12.125850000 6.231580000
    43   1 13.586880000 12.549250000 12.024330000
    44   1 11.712080000 5.747960000 10.046710000
    45   1 9.658810000 9.198140000 6.362320000
    46   1 10.530480000 6.604170000 7.313140000
    47   1 12.448880000 8.191120000 11.463930000
    48   1 13.173880000 6.922300000 8.202140000
    49   1 14.249580000 5.117250000 9.739270000
    50   1 9.079230000 5.787110000 9.587750000
    51   1 8.190700000 7.963370000 8.181700000
    52   1 13.524180000 5.691180000 12.155430000
    53   1 14.578880000 8.112340000 13.107030000
    54   1 14.135280000 6.257250000 14.739530000
    55   1 11.333380000 10.552650000 4.875770000
