ITEM: TIMESTEP
210
ITEM: NUMBER OF ATOMS
55
ITEM: BOX BOUNDS ss ss ss
4.34118 15.1571
5.82356 15.7632
4.72266 14.9381
ITEM: ATOMS id type x y z c_pea 
9 1 6.38939 7.27357 8.88961 -3.3881 
22 1 8.31554 8.17501 7.36267 -3.63222 
19 1 4.34215 9.12007 9.04178 -3.14115 
21 1 5.74147 9.08639 6.92045 -3.15292 
23 1 6.97089 10.0683 9.22845 -3.79926 
38 1 9.54911 10.7425 8.61717 -3.92036 
12 1 9.25564 6.01582 9.07211 -3.41192 
20 1 10.8613 8.24086 8.39297 -3.69233 
8 1 11.8802 5.82472 8.37363 -3.1465 
32 1 13.1799 7.5877 6.77592 -3.45337 
45 1 10.568 6.88781 6.21138 -3.23362 
49 1 13.4963 8.00246 9.44715 -3.51384 
33 1 12.424 10.2673 7.50335 -3.9322 
36 1 14.3067 9.79657 5.38494 -3.14124 
40 1 10.0907 9.68291 5.95846 -3.54639 
41 1 12.0712 8.69933 4.72372 -3.10857 
44 1 15.1561 9.19463 7.70454 -3.1471 
46 1 14.1661 10.6168 9.69389 -3.52706 
11 1 5.27697 11.5756 8.06909 -3.22082 
37 1 7.64372 10.7996 6.5052 -3.409 
42 1 7.74437 12.8418 8.14925 -3.55539 
50 1 7.78928 15.1868 9.3645 -3.12808 
28 1 14.5856 11.8046 7.17517 -3.32405 
34 1 12.2781 11.4311 5.13833 -3.27231 
31 1 10.0718 14.4813 8.07212 -3.45959 
39 1 10.1246 12.3227 6.53224 -3.49306 
29 1 14.2091 13.3026 9.43177 -3.27482 
30 1 12.4149 15.2142 8.9685 -3.17348 
35 1 11.749 12.4187 9.27591 -3.86834 
43 1 12.5646 13.4556 6.9553 -3.38354 
14 1 9.43685 6.20135 12.1261 -3.10797 
18 1 7.84327 8.25309 12.9704 -3.43875 
51 1 7.16657 6.1804 11.0988 -3.12726 
2 1 9.03276 10.4094 14.1526 -3.40658 
10 1 8.82273 8.22558 10.3481 -3.85467 
15 1 5.8567 8.56476 11.2535 -3.48196 
16 1 6.40937 10.7019 12.8558 -3.30744 
53 1 8.56916 10.6498 11.4127 -3.82642 
24 1 11.4893 9.92762 10.4743 -3.86118 
3 1 11.4917 6.97984 10.8146 -3.50254 
5 1 10.5511 8.70496 12.7484 -3.6236 
55 1 13.2571 9.00579 12.0892 -3.27074 
7 1 12.0782 10.5234 14.1106 -3.29358 
13 1 6.71019 12.7766 10.6961 -3.6044 
4 1 8.14341 12.7978 13.1834 -3.54157 
17 1 4.79418 11.0225 10.7232 -3.18756 
47 1 7.91264 15.0928 11.8848 -3.15155 
27 1 9.38614 13.2294 10.4556 -3.83421 
6 1 10.8015 11.8911 12.3326 -3.75021 
1 1 10.2612 14.5475 13.0502 -3.43423 
25 1 10.2261 15.762 10.5279 -3.33594 
26 1 12.3345 14.1622 11.3765 -3.53629 
48 1 13.4878 11.7366 11.934 -3.48184 
52 1 10.3014 12.5529 14.937 -3.15488 
54 1 12.5653 13.2431 13.9445 -3.14657 
