/tmp/LAMMPS-n7u08w_r/data.lammps (written by ASE) 

55 	 atoms 
1  atom types
4.77206915735572 15.22793084264428  xlo xhi
4.921186774215782 15.078813225784218  ylo yhi
5.063387919548342 14.936612080451658  zlo zhi


Atoms 

     1   1 9.843997127 15.022791078 10.115341012
     2   1 12.826904746 11.991889677 11.792398352
     3   1 7.322434138 13.610145781 5.860718427
     4   1 10.501379995 10.997767100 5.063387920
     5   1 10.565643885 6.095657175 11.812997576
     6   1 5.341669403 10.409509494 7.864685316
     7   1 8.292104752 11.266508467 12.232212439
     8   1 10.832651647 10.892819706 6.117407095
     9   1 10.751168969 13.973536877 9.952445354
    10   1 12.846058966 10.124848966 5.935188440
    11   1 8.158295082 4.921186774 9.225065402
    12   1 12.041612027 9.257905371 13.070592755
    13   1 9.377748037 12.962262377 9.020885278
    14   1 14.173612339 7.555191269 10.575295241
    15   1 6.734197985 13.340893641 13.241260333
    16   1 13.661994541 8.038483509 11.357015280
    17   1 10.314055976 13.599098886 12.806440286
    18   1 6.644833299 11.744950698 11.371881346
    19   1 7.221881863 10.209748135 14.765739831
    20   1 11.854147156 10.886884056 7.720087179
    21   1 10.831457483 12.607707175 7.904500403
    22   1 10.276978217 14.327951262 5.572422963
    23   1 8.329893850 5.852062170 6.773662010
    24   1 10.238507843 13.915986769 6.779361891
    25   1 8.077571677 11.312290481 14.936612080
    26   1 6.167865349 14.095950417 7.331002523
    27   1 12.909375626 11.375515120 8.753288911
    28   1 10.410563489 14.723279586 12.733237290
    29   1 12.151329304 11.901718172 6.760235959
    30   1 8.996142969 14.850941920 7.466794756
    31   1 12.376717915 6.368622763 12.931805732
    32   1 5.041787918 7.376519209 7.220277880
    33   1 8.673307482 12.588869686 10.322226298
    34   1 9.829629022 9.224451034 9.602481557
    35   1 6.412471748 9.773001327 14.055419927
    36   1 6.926397800 5.930276028 10.140519205
    37   1 13.559493584 11.748550302 6.309104749
    38   1 11.499084678 15.078813226 11.142541099
    39   1 11.129247703 10.991913447 5.268365661
    40   1 7.406612564 12.955358108 11.665676013
    41   1 8.304363089 5.757184316 13.037618939
    42   1 8.459997960 5.944022553 10.778660109
    43   1 5.687089684 10.346749695 6.764643229
    44   1 4.772069157 7.635488520 11.379365959
    45   1 12.196560766 12.263792720 10.210796615
    46   1 10.900739314 10.702713762 9.901603288
    47   1 11.229811486 12.080090423 6.846001180
    48   1 12.305252427 12.070494377 14.406648846
    49   1 6.330032819 7.468366600 7.275187644
    50   1 15.227930843 12.558738146 10.214090850
    51   1 12.408473499 13.235533304 12.546504801
    52   1 6.402352363 10.066426857 11.549277533
    53   1 5.854174236 13.073252078 12.028608565
    54   1 7.787586650 5.182975512 10.431048343
    55   1 13.047338009 5.364062212 10.719854874
