ITEM: TIMESTEP
180
ITEM: NUMBER OF ATOMS
55
ITEM: BOX BOUNDS ss ss ss
4.75347 14.3716
5.63279 16.1056
5.04683 14.5776
ITEM: ATOMS id type x y z c_pea 
11 1 7.77375 5.63381 7.96098 -3.11465 
23 1 8.08896 7.65446 6.37166 -3.22613 
34 1 8.94666 10.7736 9.2076 -3.96627 
49 1 5.76021 7.63334 7.75086 -3.25584 
6 1 5.9475 10.1309 9.54938 -3.55234 
43 1 7.22914 10.0365 7.14181 -3.54657 
4 1 9.23659 10.3783 5.26201 -3.2348 
52 1 7.79938 8.09672 9.26474 -3.87167 
8 1 10.0365 9.07519 7.36922 -3.6521 
10 1 12.5325 8.03587 7.22496 -3.31818 
20 1 11.9535 9.77108 9.23581 -3.76156 
37 1 13.794 10.5241 7.38584 -3.45206 
39 1 11.8929 10.1644 5.4918 -3.32268 
42 1 10.1523 6.61925 8.33304 -3.43544 
14 1 14.3706 8.52292 9.14696 -3.15757 
55 1 12.3591 6.89747 9.71514 -3.34127 
3 1 8.33943 12.5041 6.53612 -3.5447 
13 1 9.43746 13.59 8.84515 -3.80039 
26 1 6.78538 12.5348 8.73539 -3.53352 
30 1 7.30721 14.9462 7.62794 -3.13954 
22 1 9.40381 14.9578 6.22 -3.14974 
1 1 9.503 16.1046 8.80168 -3.21457 
21 1 11.0282 11.7492 7.45186 -3.85938 
24 1 11.6371 14.4874 7.28224 -3.43281 
29 1 13.0783 12.6067 5.85305 -3.16428 
47 1 10.5967 12.7756 5.04782 -3.28355 
45 1 13.5106 13.0394 8.49776 -3.46594 
32 1 4.75452 7.94263 10.2061 -3.12566 
35 1 5.18481 9.80573 12.1623 -3.30492 
36 1 6.17625 5.81045 9.8467 -3.12771 
41 1 9.102 7.75591 13.1118 -3.51289 
44 1 6.70761 7.38115 11.8898 -3.48119 
54 1 8.86619 6.01034 10.7184 -3.44121 
7 1 7.83036 9.87763 11.6821 -3.89787 
19 1 6.78176 8.925 14.0832 -3.1598 
25 1 9.09316 10.1722 14.4277 -3.44969 
46 1 10.5125 10.6632 12.1427 -3.82689 
5 1 10.1468 8.39221 10.627 -3.79225 
12 1 11.5079 8.85759 13.7918 -3.32413 
16 1 12.9721 8.78436 11.5666 -3.53653 
31 1 11.3184 6.62274 12.1674 -3.16555 
15 1 6.87513 11.6001 13.6257 -3.43431 
18 1 5.91506 12.3391 11.2706 -3.42357 
33 1 8.63504 12.5384 11.3114 -3.81143 
40 1 7.22616 14.7873 10.2384 -3.4007 
53 1 7.21915 14.2138 12.8286 -3.1534 
17 1 9.25646 12.8846 13.9277 -3.38234 
9 1 11.5174 12.2721 10.2168 -3.81924 
27 1 14.2263 11.0075 10.1529 -3.43814 
2 1 13.1362 11.2784 12.5883 -3.41227 
28 1 9.56546 15.0552 11.4664 -3.41144 
38 1 11.7761 14.9381 9.95767 -3.42485 
48 1 11.4367 11.4911 14.5766 -3.16356 
50 1 13.7522 13.498 11.1549 -3.16768 
51 1 11.472 13.5031 12.61 -3.49427 
