/var/folders/35/zn93tsdx7p13vbrdj0l0gn9r0000gn/T/LAMMPS-wz48whp5/data.lammps (written by ASE) 

5 	 atoms 
1  atom types
0.0 10.000000000  xlo xhi
0.0 10.000000000  ylo yhi
0.0 10.000000000  zlo zhi


Atoms 

     1   1 5.112668699 3.914928677 6.010123000
     2   1 5.928732356 3.734109673 3.702133000
     3   1 4.139465533 5.371889425 4.076943000
     4   1 5.182058039 6.265890327 4.158887000
     5   1 4.071267644 5.801598634 6.297867000
