ITEM: TIMESTEP
130
ITEM: NUMBER OF ATOMS
55
ITEM: BOX BOUNDS ss ss ss
4.08057 15.1933
3.94491 14.7477
6.02592 14.0202
ITEM: ATOMS id type x y z c_pea 
38 1 8.74809 5.90682 8.75361 -3.4588 
43 1 9.2513 7.15184 6.36587 -3.32775 
26 1 4.55812 7.6706 9.29045 -3.01002 
44 1 6.65166 6.99526 7.53492 -3.28805 
28 1 8.80812 8.67472 8.52681 -3.90877 
47 1 7.41193 9.02896 6.02691 -3.14351 
36 1 12.9516 4.9198 9.35494 -3.17478 
37 1 11.577 8.34567 7.22987 -3.60671 
46 1 11.2181 5.64707 7.50266 -3.26799 
41 1 13.6828 7.32914 8.60993 -3.39525 
45 1 10.4285 4.29361 9.86488 -3.27467 
40 1 11.1326 7.07751 9.72661 -3.90313 
23 1 6.0453 9.51482 8.22593 -3.51606 
53 1 4.08199 10.2587 9.79091 -3.13638 
24 1 8.12061 11.2616 7.73487 -3.61941 
27 1 8.19111 13.8852 8.60543 -3.31694 
20 1 5.97409 12.1612 9.06007 -3.41007 
39 1 12.1738 11.0062 6.26088 -3.15065 
42 1 9.8031 9.98777 6.04739 -3.38678 
25 1 12.7973 12.5361 8.38697 -3.47224 
30 1 13.7479 9.91322 8.03611 -3.41555 
35 1 10.8213 10.5794 8.67691 -3.88814 
15 1 10.806 14.0138 9.40979 -3.47581 
50 1 10.2777 12.7126 7.11405 -3.34421 
54 1 14.8356 11.5407 9.74118 -3.18316 
11 1 9.21807 6.39625 11.6318 -3.72271 
13 1 7.38545 8.19342 12.7846 -3.43725 
16 1 6.9853 7.45304 10.2355 -3.61577 
48 1 4.90668 8.74089 11.7025 -3.2785 
31 1 9.64522 3.94623 12.34 -2.8199 
49 1 10.5895 5.68593 14.002 -3.16318 
32 1 13.9714 6.68305 11.1847 -3.49994 
33 1 12.0359 4.88156 11.8892 -3.45192 
34 1 13.2752 6.2204 13.8326 -2.9822 
10 1 9.69463 8.2093 14.0192 -3.26027 
17 1 9.6876 9.24019 11.149 -3.96878 
5 1 14.0386 8.67262 12.9738 -3.28915 
19 1 11.6326 7.62494 12.3985 -3.60093 
29 1 15.1919 8.99326 10.4238 -3.26375 
12 1 6.97784 10.2117 10.7853 -3.90831 
51 1 4.93748 11.936 11.5593 -3.26688 
55 1 6.02784 10.4338 13.4163 -3.18217 
14 1 8.71733 10.5628 13.2756 -3.50881 
21 1 8.91889 12.0346 10.3884 -3.90489 
4 1 7.28976 12.7149 12.5635 -3.43471 
52 1 6.40856 14.1259 10.5944 -3.09737 
22 1 8.8944 14.6366 11.2306 -3.32663 
3 1 11.6534 11.9152 10.9712 -3.79914 
7 1 12.6326 9.37017 10.4869 -3.89234 
9 1 10.0215 12.8547 12.9884 -3.45697 
18 1 11.5633 10.3041 13.1745 -3.64778 
1 1 14.1368 11.1319 12.1631 -3.39422 
8 1 11.5021 14.7464 11.8576 -3.15696 
2 1 13.6329 13.64 10.8293 -3.24916 
6 1 12.6622 12.9162 13.338 -3.15331 
