/tmp/LAMMPS-r1o3athm/data.lammps (written by ASE) 

55 	 atoms 
1  atom types
4.152116465727012 15.847883534272988  xlo xhi
4.691522022188438 15.308477977811563  ylo yhi
4.455902813935302 15.544097186064697  zlo zhi


Atoms 

     1   1 8.968173534 12.167264386 10.327237186
     2   1 8.054343534 9.938764386 8.904657186
     3   1 9.333073534 11.374564386 6.586857186
     4   1 9.934953534 13.646264386 8.151427186
     5   1 11.912383534 8.523954386 8.854027186
     6   1 10.813313534 10.992164386 8.685317186
     7   1 14.084283534 8.548684386 7.126827186
     8   1 11.945183534 6.974034386 6.753217186
     9   1 11.834783534 12.486164386 6.662827186
    10   1 7.929783534 14.588364386 9.716057186
    11   1 13.855283534 6.749254386 9.068457186
    12   1 11.903083534 9.856164386 6.286007186
    13   1 7.456483534 12.496064386 8.122887186
    14   1 9.668873534 8.679874386 7.018377186
    15   1 15.487883534 9.981064386 12.178897186
    16   1 10.831833534 13.767264386 13.437997186
    17   1 13.105483534 14.006964386 11.926997186
    18   1 14.447483534 12.025964386 10.563777186
    19   1 14.937083534 12.428264386 13.092497186
    20   1 14.625983534 7.375734386 11.549397186
    21   1 13.523083534 10.970564386 8.256037186
    22   1 11.612683534 12.035064386 11.179977186
    23   1 10.517443534 14.505364386 10.772687186
    24   1 12.517083534 13.451864386 9.113687186
    25   1 13.006883534 9.756654386 11.016187186
    26   1 15.111283534 9.165834386 9.522097186
    27   1 13.314083534 8.119314386 13.883497186
    28   1 9.933423534 10.077224386 13.318697186
    29   1 10.730693534 7.762484386 14.347997186
    30   1 12.458183534 10.900164386 13.094897186
    31   1 10.603683534 11.935264386 15.297697186
    32   1 12.243083534 5.961924386 12.888997186
    33   1 9.968493534 13.019564386 12.883397186
    34   1 7.837223534 11.282664386 14.249297186
    35   1 8.627873534 13.632664386 15.336597186
    36   1 13.231883534 12.516764386 15.127897186
    37   1 15.847883534 7.871474386 13.522297186
    38   1 12.132593534 9.854984386 15.544097186
    39   1 14.737083534 10.246564386 14.699197186
    40   1 7.158713534 13.604764386 13.149497186
    41   1 11.771653534 8.428744386 11.569697186
    42   1 7.866513534 7.936514386 8.578587186
    43   1 9.677633534 6.532354386 12.235097186
    44   1 8.041693534 11.695464386 11.465197186
    45   1 7.022863534 7.364254386 11.123367186
    46   1 6.550123534 9.725774386 12.342497186
    47   1 11.704203534 5.930584386 10.371697186
    48   1 8.086993534 8.175534386 13.612297186
    49   1 9.014633534 6.039564386 9.820877186
    50   1 9.051593534 8.936964386 10.950897186
    51   1 6.889763534 10.033044386 9.707857186
    52   1 8.813200835 7.667575357 4.455902814
    53   1 4.152116466 9.871919633 8.812018282
    54   1 9.092855913 15.308477978 14.405676177
    55   1 15.510699754 4.691522022 7.907192936
