/var/folders/35/zn93tsdx7p13vbrdj0l0gn9r0000gn/T/LAMMPS-r86fquuo/data.lammps (written by ASE) 

55 	 atoms 
1  atom types
0.0 20.000000000  xlo xhi
0.0 20.000000000  ylo yhi
0.0 20.000000000  zlo zhi


Atoms 

     1   1 9.119350000 14.370170727 13.721833091
     2   1 8.781500000 12.230170727 14.920333091
     3   1 11.415410000 12.802470727 13.942433091
     4   1 10.917610000 14.403770727 11.713533091
     5   1 8.194590000 14.678170727 11.315033091
     6   1 6.797500000 12.496070727 12.619333091
     7   1 5.687150000 13.981170727 10.568733091
     8   1 13.104910000 12.852970727 11.818233091
     9   1 9.976510000 14.695270727 9.187393091
    10   1 9.445880000 12.063870727 12.278933091
    11   1 10.539810000 10.301170727 14.293233091
    12   1 7.364290000 14.837870727 8.718893091
    13   1 12.545010000 14.166070727 9.508333091
    14   1 13.213410000 10.657570727 13.670933091
    15   1 7.768780000 10.125770727 13.711333091
    16   1 5.265810000 10.149270727 12.709533091
    17   1 7.808710000 12.371270727 9.966303091
    18   1 14.874710000 10.852770727 11.478733091
    19   1 10.711110000 12.151170727 9.874563091
    20   1 5.125290000 11.404170727 10.446433091
    21   1 12.235310000 10.370370727 11.297033091
    22   1 5.922580000 12.721670727 8.106953091
    23   1 13.551910000 11.744270727 9.256203091
    24   1 9.149140000 7.803660727 13.933033091
    25   1 11.869410000 8.144870727 13.452433091
    26   1 8.946170000 12.936770727 7.500863091
    27   1 9.816810000 9.409340727 11.764433091
    28   1 6.489430000 8.071659273 7.921276909
    29   1 10.773270000 6.432429273 6.650316909
    30   1 8.977570000 7.068349273 8.523086909
    31   1 8.540920000 8.042079273 6.033816909
    32   1 13.122970000 7.725919273 6.129846909
    33   1 12.963770000 5.417609273 7.386696909
    34   1 6.768890000 10.034359273 6.124546909
    35   1 10.888470000 8.594559273 5.079666909
    36   1 9.296470000 10.689539273 5.586586909
    37   1 11.367170000 8.796449273 7.995566909
    38   1 8.775000000 9.866799273 8.116416909
    39   1 11.979670000 10.688139273 6.153006909
    40   1 14.066370000 9.740199273 7.461266909
    41   1 7.585600000 12.266639273 7.298216909
    42   1 6.538990000 6.839219273 12.350846909
    43   1 6.478520000 6.333849273 9.792706909
    44   1 8.845390000 5.951389273 10.917346909
    45   1 11.417470000 6.073409273 9.449966909
    46   1 11.043570000 5.788509273 12.315346909
    47   1 13.009070000 7.406409273 11.454546909
    48   1 13.692570000 7.393329273 8.802086909
    49   1 5.926740000 10.507939273 8.688636909
    50   1 5.248850000 8.626809273 10.559286909
    51   1 10.631470000 8.316999273 10.720846909
    52   1 7.856230000 8.732229273 10.530196909
    53   1 13.250970000 9.744289273 9.992276909
    54   1 8.311020000 5.162129273 13.376446909
    55   1 10.166070000 5.852279273 14.886146909
