/var/folders/35/zn93tsdx7p13vbrdj0l0gn9r0000gn/T/LAMMPS-mxmtl0xb/data.lammps (written by ASE) 

55 	 atoms 
1  atom types
0.0 20.000000000  xlo xhi
0.0 20.000000000  ylo yhi
0.0 20.000000000  zlo zhi


Atoms 

     1   1 7.419096727 7.244493273 11.484390182
     2   1 8.951016727 5.131533273 12.107690182
     3   1 10.566386727 6.152433273 10.147090182
     4   1 11.732286727 5.191233273 12.313490182
     5   1 6.556756727 9.855083273 10.300780182
     6   1 11.193286727 8.981093273 10.221300182
     7   1 8.895196727 9.828483273 11.538790182
     8   1 13.366986727 10.391383273 11.252790182
     9   1 12.971386727 7.473193273 11.389290182
    10   1 10.812386727 11.710083273 11.376690182
    11   1 8.101196727 12.521183273 10.433690182
    12   1 9.495486727 15.078683273 9.870960182
    13   1 13.318786727 12.787783273 10.026600182
    14   1 11.701686727 14.424683273 11.450690182
    15   1 10.256386727 5.523383273 14.421390182
    16   1 8.078526727 7.077783273 14.103890182
    17   1 12.503886727 7.087783273 13.958790182
    18   1 6.621306727 9.251563273 12.991090182
    19   1 10.175786727 7.545453273 12.492090182
    20   1 8.873606727 9.660483273 14.290090182
    21   1 10.499486727 7.962963273 15.280390182
    22   1 11.644986727 9.680483273 13.240290182
    23   1 7.697726727 11.741183273 12.963890182
    24   1 10.243086727 11.923383273 14.029290182
    25   1 9.269336727 13.906083273 12.390890182
    26   1 11.324686727 14.234783273 13.998290182
    27   1 12.806386727 12.385383273 12.969190182
    28   1 9.196120000 8.017736727 5.581599818
    29   1 11.164260000 6.127366727 6.430509818
    30   1 13.566260000 6.617826727 5.711379818
    31   1 7.341460000 9.957006727 5.081559818
    32   1 11.720360000 8.490996727 5.021789818
    33   1 9.894100000 10.645066727 4.719609818
    34   1 11.984260000 10.824866727 6.435629818
    35   1 13.959760000 9.106746727 6.278399818
    36   1 7.876850000 12.461966727 5.856389818
    37   1 6.851370000 6.972846727 9.521069818
    38   1 8.995860000 6.715146727 7.996629818
    39   1 11.253260000 5.809846727 9.199969818
    40   1 13.610060000 7.406086727 8.276849818
    41   1 13.207760000 4.921316727 7.722899818
    42   1 6.191270000 11.021666727 7.355549818
    43   1 7.003940000 8.401136727 7.256549818
    44   1 6.040240000 9.561186727 9.559269818
    45   1 11.159960000 8.500206727 7.752409818
    46   1 9.091310000 10.254696727 7.164489818
    47   1 10.801060000 11.167566727 9.387769818
    48   1 8.237970000 12.192266727 8.850669818
    49   1 8.811500000 9.038606727 9.589069818
    50   1 13.309660000 10.153136727 8.745039818
    51   1 6.173830000 13.648866727 7.762559818
    52   1 10.352060000 12.783966727 6.815919818
    53   1 8.518790000 14.646166727 7.317669818
    54   1 10.449460000 14.104366727 9.113769818
    55   1 12.753360000 12.742966727 8.349489818
