ITEM: TIMESTEP
84
ITEM: NUMBER OF ATOMS
55
ITEM: BOX BOUNDS ss ss ss
4.58287 15.2739
5.19589 15.1688
5.08198 14.7701
ITEM: ATOMS id type x y z c_pea 
9 1 7.69937 8.34801 8.48113 -3.68102 
13 1 9.72749 10.0282 5.083 -3.38873 
15 1 5.15632 8.49481 9.27281 -3.18726 
16 1 7.37308 9.36155 5.98878 -3.18848 
18 1 9.44648 7.70398 6.51121 -3.47158 
28 1 8.90203 5.89425 8.49174 -3.30592 
23 1 10.4352 7.88793 9.44968 -3.8587 
24 1 11.7555 6.6837 7.38834 -3.37837 
25 1 11.8151 8.13656 5.24401 -3.12835 
26 1 11.2228 5.19694 9.53334 -3.16551 
27 1 11.1807 9.69462 7.42828 -3.78634 
38 1 13.7189 8.81048 7.3548 -3.51998 
44 1 13.1211 7.1557 9.63415 -3.4964 
39 1 12.757 9.94066 9.69649 -3.88802 
5 1 8.84106 10.8674 7.99891 -3.84781 
7 1 8.91518 13.8059 7.61113 -3.37689 
11 1 6.66699 12.8872 8.52547 -3.44519 
12 1 7.72823 11.9842 5.97666 -3.25697 
17 1 5.8661 10.5471 7.74765 -3.39127 
8 1 12.4443 10.5411 5.11243 -3.10038 
37 1 10.1217 15.1677 9.48528 -3.16937 
10 1 10.591 12.235 6.1603 -3.42424 
40 1 13.2395 11.6043 7.31125 -3.41596 
41 1 11.2596 12.7432 8.71106 -3.69343 
42 1 15.2729 10.7689 8.71689 -3.1079 
34 1 13.8229 12.6619 9.83225 -3.3902 
4 1 5.6969 8.60865 11.8211 -3.46158 
19 1 7.09906 6.4972 12.8185 -3.15891 
20 1 9.15901 5.70113 11.1771 -3.4514 
21 1 6.70332 6.4621 10.1839 -3.32726 
22 1 8.39691 8.30696 11.2636 -3.78217 
47 1 9.62701 7.19092 13.5142 -3.47355 
54 1 7.5588 8.95922 13.8951 -3.4732 
43 1 15.2379 8.64999 9.93042 -3.10179 
45 1 11.6946 6.43044 11.8639 -3.45666 
49 1 10.1744 9.71906 14.54 -3.47012 
50 1 11.0701 9.07054 11.8886 -3.81155 
52 1 13.7109 8.35516 12.0768 -3.43359 
55 1 12.1267 7.9263 14.1542 -3.15579 
14 1 7.71113 14.8818 10.3865 -3.17884 
1 1 6.19262 11.0765 12.8306 -3.46077 
2 1 5.9643 13.0059 11.0414 -3.29743 
3 1 7.10973 10.518 10.2066 -3.78579 
6 1 4.58384 10.827 10.3646 -3.15824 
29 1 7.91984 13.3284 12.8212 -3.43985 
31 1 8.93422 12.6417 10.2083 -3.7864 
48 1 8.95538 10.835 12.3183 -3.77789 
51 1 8.12419 11.4876 14.769 -3.15612 
30 1 10.2477 14.2881 12.0305 -3.42291 
32 1 11.4484 11.8091 11.2656 -3.79548 
33 1 14.4885 10.8655 11.5765 -3.40286 
35 1 12.3743 14.5971 10.6114 -3.134 
36 1 13.1092 13.1183 12.677 -3.21372 
46 1 12.6448 10.5663 13.5533 -3.48333 
53 1 10.5883 12.3868 13.8816 -3.45702 
