ITEM: TIMESTEP
88
ITEM: NUMBER OF ATOMS
55
ITEM: BOX BOUNDS pp pp pp
0 20
0 20
0 20
ITEM: ATOMS id type x y z c_pea 
30 1 6.54908 7.43513 7.31927 -3.24874 
31 1 9.26524 6.01595 7.64913 -3.30594 
32 1 11.4442 7.24647 6.74315 -3.38013 
34 1 7.04531 10.0792 6.59164 -3.43784 
35 1 10.7693 9.74276 7.50163 -3.90423 
36 1 8.88227 8.13902 5.93555 -3.45467 
37 1 11.0945 9.01925 4.74276 -3.15702 
38 1 9.3219 10.8908 5.48592 -3.40024 
40 1 11.9584 11.4164 5.51008 -3.16323 
39 1 13.2567 9.27353 6.16278 -3.14788 
48 1 6.03463 12.2466 7.97904 -3.15565 
41 1 8.02287 12.895 6.55964 -3.14544 
42 1 10.5448 12.5807 7.44606 -3.52817 
1 1 6.84048 4.96733 11.3565 -2.98818 
44 1 6.26708 7.37344 10.175 -3.52481 
46 1 7.07463 5.30897 8.78224 -3.06935 
3 1 8.95409 6.33797 10.5228 -3.79056 
45 1 11.5033 6.22107 9.24872 -3.34452 
4 1 11.336 5.92915 11.985 -3.4291 
5 1 13.2638 7.61093 11.1595 -3.4578 
10 1 6.27495 11.9048 10.5675 -3.51381 
47 1 5.9872 9.71481 9.03683 -3.52744 
19 1 5.6891 9.57985 11.9719 -3.26401 
33 1 8.54853 8.37275 8.63231 -3.76257 
6 1 8.0811 9.52027 11.089 -3.92485 
49 1 11.1821 11.1829 9.98864 -3.87856 
50 1 8.49582 11.1559 8.63483 -3.89552 
51 1 10.7747 8.51352 10.2846 -3.82703 
43 1 13.0477 11.3302 8.00549 -3.47696 
7 1 13.8933 10.3008 10.4786 -3.48868 
52 1 13.014 8.52039 8.64769 -3.49992 
11 1 7.06131 14.1581 11.8179 -3.1393 
12 1 8.92846 12.3961 11.0638 -3.68435 
13 1 9.44014 15.0204 11.5051 -3.1192 
53 1 10.8594 13.9395 9.63395 -3.35531 
54 1 8.03772 13.9037 9.10501 -3.4684 
55 1 13.265 12.8608 10.3118 -3.20332 
2 1 7.01182 7.22531 12.7302 -3.52305 
17 1 8.46221 7.13509 15.1075 -3.15021 
15 1 8.8686 5.27476 13.0961 -3.31196 
16 1 10.7675 6.17124 14.7243 -3.11656 
21 1 9.75043 7.92735 12.8233 -3.8549 
18 1 12.6521 7.62414 13.8114 -3.41506 
20 1 7.52633 9.39466 14.1851 -3.47498 
26 1 6.99054 11.7907 13.1812 -3.50344 
22 1 10.5356 9.13745 15.1104 -3.5998 
23 1 9.59955 10.7616 13.0241 -3.66457 
27 1 8.82881 11.3859 15.4375 -3.1376 
29 1 11.3923 11.894 14.6651 -3.38548 
9 1 11.9979 9.86513 12.4277 -3.79156 
8 1 14.634 9.26663 12.8515 -3.15687 
24 1 13.1694 10.0226 14.9046 -3.17467 
25 1 13.7115 11.8269 12.8636 -3.31749 
14 1 11.3883 13.0621 12.2247 -3.62419 
28 1 9.08701 13.459 13.7048 -3.43091 
