/var/folders/35/zn93tsdx7p13vbrdj0l0gn9r0000gn/T/LAMMPS-c4b6vkzk/data.lammps (written by ASE) 

55 	 atoms 
1  atom types
0.0 20.000000000  xlo xhi
0.0 20.000000000  ylo yhi
0.0 20.000000000  zlo zhi


Atoms 

     1   1 14.379744000 9.016755000 10.909687364
     2   1 14.094944000 6.898025000 8.969327364
     3   1 13.996344000 11.713255000 10.143387364
     4   1 13.562044000 12.028955000 7.584567364
     5   1 13.618944000 9.528065000 8.375147364
     6   1 13.762544000 6.586495000 11.584087364
     7   1 12.904244000 14.242155000 8.874477364
     8   1 13.323744000 10.926755000 12.713887364
     9   1 12.341744000 10.362055000 5.884697364
    10   1 12.431044000 7.769995000 6.818187364
    11   1 12.681744000 4.777845000 10.213187364
    12   1 12.237544000 5.330105000 7.770157364
    13   1 12.595744000 13.389855000 11.664287364
    14   1 12.330744000 8.399055000 12.818687364
    15   1 11.895944000 9.940765000 10.528987364
    16   1 11.346944000 12.926955000 6.634207364
    17   1 11.582744000 7.401245000 9.660247364
    18   1 12.074544000 12.733055000 14.238287364
    19   1 11.254044000 12.356955000 9.419937364
    20   1 11.136444000 15.222155000 10.552287364
    21   1 10.803744000 9.830985000 7.948867364
    22   1 11.093944000 6.084115000 12.052487364
    23   1 10.193744000 8.566335000 5.425357364
    24   1 11.233144000 10.137375000 14.514887364
    25   1 10.136244000 14.736555000 8.152767364
    26   1 9.795734000 11.207255000 5.302787364
    27   1 8.473136000 7.668058455 6.525972636
    28   1 6.385746000 9.426978455 6.134532636
    29   1 9.099916000 9.923938455 5.304762636
    30   1 7.433516000 11.991438455 5.623662636
    31   1 9.667346000 11.894138455 7.136552636
    32   1 9.132186000 14.143538455 5.767742636
    33   1 7.078886000 5.580458455 10.126512636
    34   1 6.395616000 7.564268455 8.299452636
    35   1 8.057036000 5.372418455 7.808202636
    36   1 9.863876000 5.117138455 9.898112636
    37   1 8.863206000 7.583058455 9.376202636
    38   1 6.839896000 7.922178455 11.357912636
    39   1 8.232526000 10.126338455 10.715012636
    40   1 5.701236000 11.558638455 7.593482636
    41   1 5.620256000 9.711028455 9.579312636
    42   1 7.916266000 10.097038455 8.067342636
    43   1 6.536426000 12.224638455 10.092412636
    44   1 7.615516000 13.491238455 8.009222636
    45   1 8.118306000 14.493538455 10.633412636
    46   1 9.518486000 12.477738455 10.035412636
    47   1 10.138806000 7.245798455 14.106412636
    48   1 8.626686000 6.069768455 12.197912636
    49   1 8.253546000 9.437328455 13.497712636
    50   1 5.985666000 10.342438455 12.175112636
    51   1 10.014976000 8.304738455 11.764212636
    52   1 10.232316000 11.134938455 12.363012636
    53   1 9.178366000 11.764938455 14.697212636
    54   1 7.690506000 12.326438455 12.515412636
    55   1 9.845186000 13.835938455 12.786212636
