/var/folders/35/zn93tsdx7p13vbrdj0l0gn9r0000gn/T/LAMMPS-x60c8knb/data.lammps (written by ASE) 

55 	 atoms 
1  atom types
0.0 20.000000000  xlo xhi
0.0 20.000000000  ylo yhi
0.0 20.000000000  zlo zhi


Atoms 

     1   1 8.155974000 7.527360000 7.006696455
     2   1 5.403344000 11.549460000 8.252856455
     3   1 6.102594000 9.310490000 7.038556455
     4   1 8.680334000 9.830860000 5.778356455
     5   1 7.225974000 11.950660000 6.295256455
     6   1 9.863604000 11.929760000 7.697966455
     7   1 8.904334000 14.111560000 6.247926455
     8   1 9.685324000 12.135460000 4.887976455
     9   1 6.178064000 7.205300000 8.813716455
    10   1 7.115964000 5.644260000 10.806166455
    11   1 7.017794000 7.888560000 12.251766455
    12   1 8.088554000 5.307540000 8.423606455
    13   1 8.611554000 7.744620000 9.862036455
    14   1 9.868644000 5.386010000 10.398666455
    15   1 5.756374000 9.450390000 10.063066455
    16   1 7.828094000 10.431160000 8.612056455
    17   1 8.215874000 10.131860000 11.261766455
    18   1 6.419084000 12.190760000 10.632366455
    19   1 7.473894000 13.438560000 8.531036455
    20   1 8.001384000 14.559660000 11.122266455
    21   1 9.418534000 12.581760000 10.457066455
    22   1 9.855654000 14.692460000 8.571076455
    23   1 8.840074000 5.743390000 12.828366455
    24   1 8.281514000 7.508200000 14.686666455
    25   1 5.860354000 10.381660000 12.582766455
    26   1 8.026414000 9.951460000 14.102066455
    27   1 7.659314000 12.465160000 12.986766455
    28   1 12.770256000 7.385390909 7.771673545
    29   1 10.276456000 8.432460909 7.897423545
    30   1 11.274956000 11.103410909 7.984543545
    31   1 10.862356000 12.128210909 5.576603545
    32   1 12.148156000 9.514380909 6.031603545
    33   1 14.036756000 9.870740909 7.938603545
    34   1 13.337956000 11.954010909 6.398823545
    35   1 11.892256000 13.839710909 7.816833545
    36   1 10.379856000 5.977250909 8.865163545
    37   1 10.363456000 7.751590909 11.159223545
    38   1 12.577356000 6.249720909 10.262653545
    39   1 14.596656000 7.869380909 9.705003545
    40   1 13.183956000 8.137200909 12.115423545
    41   1 11.747956000 11.627810909 10.751223545
    42   1 12.182156000 9.123710909 9.777183545
    43   1 14.452456000 10.355510909 10.707323545
    44   1 9.793756000 14.418310909 11.986023545
    45   1 12.014156000 14.292810909 10.492623545
    46   1 13.754656000 12.388510909 9.045463545
    47   1 13.979056000 12.848510909 11.704023545
    48   1 11.520556000 5.980780909 12.708723545
    49   1 10.725856000 10.024600909 12.672723545
    50   1 9.289616000 9.539560909 14.948823545
    51   1 11.704956000 8.217710909 14.330223545
    52   1 11.635556000 10.852510909 15.112023545
    53   1 13.347956000 10.632110909 13.135423545
    54   1 9.463126000 12.251210909 14.448023545
    55   1 11.688756000 12.861510909 13.143023545
