/var/folders/35/zn93tsdx7p13vbrdj0l0gn9r0000gn/T/LAMMPS-0ek9mhwt/data.lammps (written by ASE) 

5 	 atoms 
1  atom types
0.0 10.000000000  xlo xhi
0.0 10.000000000  ylo yhi
0.0 10.000000000  zlo zhi


Atoms 

     1   1 4.997300278 4.309644134 6.260838944
     2   1 3.728340042 6.236454050 5.422903240
     3   1 6.271659958 3.763545950 3.927652829
     4   1 5.985801067 6.022209247 4.845005911
     5   1 4.016981226 4.715264869 3.739161056
