ITEM: TIMESTEP
24
ITEM: NUMBER OF ATOMS
5
ITEM: BOX BOUNDS pp pp pp
0 10
0 10
0 10
ITEM: ATOMS id type x y z c_pea 
3 1 3.8151 4.94464 3.47613 -2.57482 
5 1 5.82606 3.7836 4.2716 -2.76123 
4 1 5.54572 6.36937 4.47614 -2.76121 
2 1 4.05851 4.77806 5.91279 -2.7612 
1 1 6.47157 5.00966 6.29785 -2.57481 
