/var/folders/35/zn93tsdx7p13vbrdj0l0gn9r0000gn/T/LAMMPS-d1c39f0l/data.lammps (written by ASE) 

5 	 atoms 
1  atom types
0.0 10.000000000  xlo xhi
0.0 10.000000000  ylo yhi
0.0 10.000000000  zlo zhi


Atoms 

     1   1 4.294669011 4.363215041 6.364002060
     2   1 3.645619011 6.284895041 4.981932060
     3   1 4.515722541 6.028958875 4.792678979
     4   1 6.354380989 4.426616534 4.515847708
     5   1 4.176194175 3.715104959 3.635997940
