/var/folders/35/zn93tsdx7p13vbrdj0l0gn9r0000gn/T/LAMMPS-sb0gx33c/data.lammps (written by ASE) 

5 	 atoms 
1  atom types
0.0 10.000000000  xlo xhi
0.0 10.000000000  ylo yhi
0.0 10.000000000  zlo zhi


Atoms 

     1   1 3.761756991 6.498830265 7.078355725
     2   1 6.238243009 5.418087824 7.029900375
     3   1 4.346126865 6.247316203 4.179277136
     4   1 4.124899663 3.501169735 2.921644275
     5   1 5.055997275 3.727870177 4.008075895
