ITEM: TIMESTEP
54
ITEM: NUMBER OF ATOMS
5
ITEM: BOX BOUNDS pp pp pp
0 10
0 10
0 10
ITEM: ATOMS id type x y z c_pea 
4 1 3.4661 4.34447 3.74702 -2.57482 
5 1 5.54004 3.82793 4.95381 -2.76119 
3 1 4.98294 6.23735 4.12183 -2.76118 
1 1 3.59298 5.17064 6.05501 -2.76124 
2 1 5.94497 5.81288 6.33959 -2.57482 
