/var/folders/35/zn93tsdx7p13vbrdj0l0gn9r0000gn/T/LAMMPS-_8htyoxx/data.lammps (written by ASE) 

5 	 atoms 
1  atom types
0.0 10.000000000  xlo xhi
0.0 10.000000000  ylo yhi
0.0 10.000000000  zlo zhi


Atoms 

     1   1 3.858084935 4.962805021 6.061065433
     2   1 5.534330721 3.249441625 5.532793190
     3   1 4.285970056 6.750558375 4.434480676
     4   1 6.141915065 4.573806267 4.228593174
     5   1 4.833975131 6.630447227 3.938934567
