/var/folders/35/zn93tsdx7p13vbrdj0l0gn9r0000gn/T/LAMMPS-h_svcd4g/data.lammps (written by ASE) 

5 	 atoms 
1  atom types
0.0 10.000000000  xlo xhi
0.0 10.000000000  ylo yhi
0.0 10.000000000  zlo zhi


Atoms 

     1   1 4.161610891 4.730842525 6.013133000
     2   1 6.016480033 6.313179293 6.297713000
     3   1 5.106487397 3.686820707 3.702287000
     4   1 3.747722494 5.422081681 4.782617000
     5   1 6.252277506 5.808315804 4.161897000
