ITEM: TIMESTEP
32
ITEM: NUMBER OF ATOMS
5
ITEM: BOX BOUNDS pp pp pp
0 10
0 10
0 10
ITEM: ATOMS id type x y z c_pea 
3 1 4.70218 3.74777 3.74925 -2.57482 
4 1 3.83786 5.92203 4.49111 -2.76121 
5 1 6.39457 5.42476 4.33909 -2.76121 
1 1 4.93829 4.22998 6.14437 -2.7612 
2 1 5.41167 6.63671 6.23384 -2.57482 
