ITEM: TIMESTEP
126
ITEM: NUMBER OF ATOMS
55
ITEM: BOX BOUNDS ss ss ss
6.01184 14.2597
4.74238 15.4957
5.24358 15.4869
ITEM: ATOMS id type x y z c_pea 
9 1 8.67604 8.94122 9.82129 -3.94388 
12 1 7.42926 8.61009 7.19795 -3.31236 
19 1 7.90897 6.35255 8.78547 -3.42345 
44 1 9.8423 7.3648 7.28168 -3.58862 
52 1 9.59937 9.21861 5.37372 -3.18019 
24 1 6.01277 8.09707 9.36821 -3.16682 
55 1 10.1851 4.82916 8.6058 -3.197 
29 1 13.3498 7.49013 10.1493 -3.51987 
37 1 12.1351 8.49288 5.97009 -3.27903 
38 1 11.6199 9.04294 8.46838 -3.84293 
40 1 14.1725 8.24181 7.70499 -3.16546 
45 1 12.2848 6.3579 7.85321 -3.42155 
48 1 12.3507 4.98673 10.185 -3.17632 
8 1 10.4754 6.91249 10.2064 -3.92297 
31 1 14.0631 10.0173 9.903 -3.52464 
50 1 9.24272 10.4671 7.65039 -3.75298 
1 1 9.52903 14.6744 10.0626 -3.45186 
2 1 8.74452 11.9421 9.95063 -3.85396 
4 1 6.57352 10.6777 8.92629 -3.51523 
5 1 6.90841 13.9008 9.66385 -3.27086 
47 1 7.35736 12.7331 7.31288 -3.44407 
49 1 8.70657 14.5281 5.63857 -3.11033 
51 1 8.9858 11.901 5.28951 -3.31951 
53 1 8.19992 15.3846 7.93556 -3.14934 
43 1 9.98276 13.1429 7.72397 -3.74533 
32 1 14.2588 12.6487 9.27534 -3.17107 
36 1 10.8693 15.4945 7.43862 -3.22425 
39 1 11.4432 11.1448 6.11217 -3.6051 
41 1 12.7691 13.4146 7.21623 -3.42617 
42 1 13.7126 10.7857 7.34595 -3.40295 
54 1 11.0724 13.73 5.24461 -3.15431 
30 1 11.6897 11.6275 9.25096 -3.89154 
33 1 12.1122 14.2415 9.68898 -3.37352 
10 1 7.49617 7.0138 11.4463 -3.5502 
11 1 8.50559 5.68234 13.5439 -3.29699 
14 1 7.42073 8.45688 13.8376 -3.41529 
20 1 6.48156 9.52416 11.5675 -3.45939 
26 1 8.64023 4.74351 10.7782 -3.18307 
13 1 9.8712 7.85601 12.7731 -3.8684 
25 1 9.25079 7.41421 15.4859 -3.14411 
22 1 9.38765 9.96279 14.9172 -3.41771 
46 1 11.4326 9.56226 11.169 -3.89382 
7 1 11.0426 5.87784 14.5861 -3.13751 
17 1 10.7009 4.84709 12.2091 -3.29282 
27 1 11.7476 8.47689 14.5935 -3.36117 
28 1 12.4569 6.83922 12.5033 -3.49889 
34 1 13.6023 9.28352 12.5794 -3.28661 
15 1 6.15771 12.0261 11.3016 -3.22873 
16 1 9.4725 12.494 14.1668 -3.16647 
18 1 9.02645 10.5183 12.2373 -3.84241 
21 1 7.08319 11.2691 13.7679 -3.27956 
23 1 8.10573 13.4779 12.1876 -3.39347 
3 1 10.7437 12.8111 11.72 -3.63686 
6 1 11.5951 10.9203 13.5757 -3.48728 
35 1 13.2303 11.888 11.6081 -3.38538 
