ITEM: TIMESTEP
24
ITEM: NUMBER OF ATOMS
5
ITEM: BOX BOUNDS pp pp pp
0 10
0 10
0 10
ITEM: ATOMS id type x y z c_pea 
1 1 4.36284 4.97584 3.239 -2.57483 
4 1 6.22859 4.07453 4.55495 -2.76122 
2 1 3.73925 3.69766 5.23943 -2.76119 
5 1 5.47312 4.26084 6.88291 -2.57483 
3 1 4.78661 6.08281 5.38839 -2.7612 
