/var/folders/35/zn93tsdx7p13vbrdj0l0gn9r0000gn/T/LAMMPS-zovcwwdz/data.lammps (written by ASE) 

55 	 atoms 
1  atom types
0.0 20.000000000  xlo xhi
0.0 20.000000000  ylo yhi
0.0 20.000000000  zlo zhi


Atoms 

     1   1 9.225780000 11.850552909 15.025854727
     2   1 10.690420000 9.537742909 14.884954727
     3   1 7.927650000 9.548312909 14.832654727
     4   1 9.207730000 7.241132909 14.518454727
     5   1 11.660020000 12.165952909 13.898854727
     6   1 6.651640000 6.892002909 13.467854727
     7   1 12.964820000 9.816122909 13.347054727
     8   1 5.766580000 9.490842909 13.211054727
     9   1 7.228520000 11.672952909 13.098254727
    10   1 9.345190000 13.434652909 12.818754727
    11   1 9.808010000 10.662452909 12.669154727
    12   1 11.019720000 7.980752909 12.604154727
    13   1 13.948920000 12.443452909 12.585254727
    14   1 8.249270000 8.516042909 12.366954727
    15   1 9.061960000 5.969622909 12.123154727
    16   1 11.798720000 13.760452909 11.563154727
    17   1 14.758720000 10.399352909 11.268754727
    18   1 12.135420000 11.034452909 11.194554727
    19   1 6.706550000 5.672932909 11.095154727
    20   1 5.241280000 11.077752909 11.040654727
    21   1 5.613840000 8.217422909 10.966354727
    22   1 7.239830000 13.207752909 10.846154727
    23   1 12.955920000 8.457542909 10.755154727
    24   1 7.605530000 10.421752909 10.604854727
    25   1 9.507690000 14.864152909 10.546354727
    26   1 9.751880000 12.221152909 10.334654727
    27   1 6.366646545 7.528627091 7.330705273
    28   1 8.758456545 7.603277091 5.842565273
    29   1 11.298786545 6.872017091 7.429675273
    30   1 11.331186545 8.087667091 5.181515273
    31   1 7.381946545 9.870467091 6.423585273
    32   1 9.784786545 10.207767091 4.974145273
    33   1 13.581086545 8.099227091 6.958495273
    34   1 12.404686545 10.325267091 5.985205273
    35   1 6.072886545 12.207967091 6.924585273
    36   1 8.600736545 12.354467091 6.025665273
    37   1 11.164786545 12.587467091 5.069625273
    38   1 10.181286545 14.408667091 6.766975273
    39   1 13.285486545 12.750867091 6.745235273
    40   1 6.600626545 5.933877091 9.467175273
    41   1 8.803366545 6.199677091 8.125705273
    42   1 11.126086545 5.135847091 9.393935273
    43   1 13.088686545 7.101507091 9.568485273
    44   1 5.528066545 10.159867091 8.470265273
    45   1 9.893586545 9.297047091 7.499335273
    46   1 10.864186545 11.949367091 7.660805273
    47   1 7.803006545 8.591667091 9.208895273
    48   1 8.208626545 11.383367091 8.703575273
    49   1 14.519586545 10.464767091 7.722495273
    50   1 12.231686545 9.548257091 8.778815273
    51   1 5.933956545 12.607867091 9.620185273
    52   1 7.629086545 14.010367091 7.916035273
    53   1 9.715886545 13.883867091 9.402725273
    54   1 13.297086545 12.090667091 9.418855273
    55   1 12.168786545 14.332167091 8.534375273
