ITEM: TIMESTEP
120
ITEM: NUMBER OF ATOMS
55
ITEM: BOX BOUNDS pp pp pp
0 20
0 20
0 20
ITEM: ATOMS id type x y z c_pea 
27 1 5.88708 7.4845 7.93403 -3.15112 
28 1 8.44067 6.88809 7.05305 -3.33745 
29 1 11.0927 7.09212 7.6919 -3.3762 
31 1 7.34494 9.28135 6.46315 -3.53158 
35 1 6.33717 11.9129 6.33222 -3.21111 
30 1 9.9932 8.35101 5.39033 -3.23044 
32 1 8.89464 10.9905 5.22798 -3.51423 
45 1 9.99727 9.54152 7.63776 -3.78453 
34 1 11.5629 10.5191 5.05166 -3.27523 
33 1 12.7133 9.03909 6.7621 -3.41682 
39 1 13.2474 11.9789 6.81863 -3.40014 
52 1 6.90545 14.1687 7.71853 -3.16585 
46 1 10.627 12.1039 7.13697 -3.66134 
36 1 8.62786 13.578 5.83045 -3.38049 
37 1 10.843 12.917 4.5296 -3.04508 
38 1 11.6126 14.4085 6.42494 -3.07841 
40 1 6.72674 6.12536 10.0216 -3.32089 
19 1 8.25622 4.96005 11.7343 -3.14292 
41 1 9.33806 6.03402 9.4497 -3.46028 
15 1 10.7608 6.00662 11.6958 -3.3349 
14 1 8.49384 7.78401 11.7022 -3.83445 
23 1 12.9479 7.72681 11.8526 -3.33209 
20 1 4.87254 10.9158 11.1631 -3.15545 
21 1 5.68647 8.42388 10.7053 -3.52626 
24 1 7.51546 10.7786 10.6201 -3.80688 
44 1 5.66029 10.114 8.47828 -3.54559 
42 1 10.7341 8.38635 10.1976 -3.87533 
47 1 8.00373 8.54778 9.12362 -3.77253 
48 1 8.10354 11.6852 8.11352 -3.85648 
49 1 14.7249 10.1577 8.26293 -3.16313 
43 1 13.2565 8.01508 9.19923 -3.39434 
17 1 14.5326 9.67019 10.9468 -3.3452 
18 1 12.0097 10.3748 11.6415 -3.73638 
50 1 12.2288 10.6 8.96832 -3.76903 
22 1 7.8499 13.6691 10.3275 -3.56347 
51 1 5.63922 12.5897 9.32384 -3.31211 
25 1 10.3211 14.74 10.717 -3.16261 
26 1 10.1027 12.002 10.1076 -3.94791 
53 1 9.54721 14.3905 8.24683 -3.52476 
16 1 12.1785 13.1717 11.655 -3.46789 
54 1 14.1568 12.1333 10.0497 -3.35501 
55 1 12.179 13.5958 8.93057 -3.56176 
6 1 6.48912 6.79845 12.8864 -3.23921 
4 1 8.98734 6.08485 13.8688 -3.15326 
8 1 6.52335 9.69923 12.9774 -3.53215 
12 1 10.8225 8.03984 13.4151 -3.58137 
3 1 8.26375 8.52373 14.5048 -3.40246 
1 1 8.23614 11.3649 14.5037 -3.23977 
2 1 10.4217 9.95112 15.1912 -3.17418 
11 1 9.44257 10.2781 12.5014 -3.82327 
5 1 11.45 11.8846 13.8965 -3.39184 
7 1 12.9592 9.58091 13.9757 -3.23982 
13 1 14.0795 11.6424 12.7633 -3.15727 
9 1 6.70241 12.4157 12.5071 -3.30532 
10 1 9.36536 13.0339 12.5884 -3.51616 
