/tmp/LAMMPS-hw3c2tpe/data.lammps (written by ASE) 

55 	 atoms 
1  atom types
5.560244999999998 14.439755000000002  xlo xhi
4.752649999999999 15.24735  ylo yhi
4.597925 15.402075  zlo zhi


Atoms 

     1   1 11.179855000 5.335840000 12.209575000
     2   1 10.782755000 9.854040000 12.108275000
     3   1 11.959055000 10.280150000 14.379275000
     4   1 11.666555000 7.612320000 13.638875000
     5   1 11.669055000 7.676480000 10.702575000
     6   1 12.795555000 11.622050000 11.837275000
     7   1 13.590455000 6.336010000 12.287375000
     8   1 13.524955000 9.054620000 12.294675000
     9   1 14.439755000 7.493790000 10.067415000
    10   1 9.304505000 7.227740000 12.202375000
    11   1 12.636655000 5.262390000 9.977245000
    12   1 9.791805000 5.727330000 9.889765000
    13   1 10.776655000 12.555350000 13.421475000
    14   1 11.702655000 14.119550000 11.515675000
    15   1 7.233855000 10.394750000 15.076075000
    16   1 7.673825000 13.001050000 14.369275000
    17   1 8.465115000 11.213750000 12.718275000
    18   1 6.326525000 13.534350000 12.054875000
    19   1 9.614365000 11.393250000 15.402075000
    20   1 9.431815000 8.985240000 14.371575000
    21   1 5.773035000 11.071350000 13.005175000
    22   1 7.133185000 8.687680000 12.884275000
    23   1 5.692825000 9.284020000 10.731875000
    24   1 8.966865000 14.099550000 12.162875000
    25   1 8.558195000 9.391220000 10.581575000
    26   1 7.446505000 7.003080000 10.172975000
    27   1 13.193255000 10.477350000 9.907055000
    28   1 8.768025000 12.456350000 9.966125000
    29   1 5.954755000 11.801250000 9.996045000
    30   1 8.599365000 15.247350000 10.598675000
    31   1 11.009355000 14.266650000 10.835775000
    32   1 7.922535000 9.942380000 8.863005000
    33   1 9.375465000 14.208550000 8.229035000
    34   1 7.121075000 12.330750000 7.564935000
    35   1 6.754185000 14.317250000 9.136545000
    36   1 10.642255000 9.759250000 9.392965000
    37   1 5.900235000 7.502910000 9.081265000
    38   1 6.993295000 7.872440000 6.807545000
    39   1 5.560245000 9.994280000 7.911895000
    40   1 9.693145000 11.592750000 7.204315000
    41   1 10.667755000 7.047250000 4.713345000
    42   1 8.835105000 5.975880000 6.449715000
    43   1 9.945485000 8.644960000 6.955505000
    44   1 11.518955000 12.489350000 8.994195000
    45   1 7.290425000 5.188460000 8.918885000
    46   1 12.510555000 8.450430000 5.708195000
    47   1 8.772255000 7.247070000 8.925275000
    48   1 8.434835000 8.140660000 4.597925000
    49   1 12.164955000 10.588450000 7.133545000
    50   1 9.894765000 4.752650000 8.612975000
    51   1 11.443155000 6.356510000 7.207395000
    52   1 12.897455000 8.306890000 8.367595000
    53   1 10.422655000 10.002730000 4.867735000
    54   1 7.724955000 10.275650000 5.962875000
    55   1 13.077157319 9.911977053 7.853119182
