ITEM: TIMESTEP
86
ITEM: NUMBER OF ATOMS
55
ITEM: BOX BOUNDS ss ss ss
5.46319 14.2768
4.60988 15.4881
4.48334 15.4852
ITEM: ATOMS id type x y z c_pea 
32 1 7.86681 9.82045 8.71002 -3.86544 
37 1 5.68225 7.40469 8.8647 -3.14461 
38 1 7.14513 7.81368 6.83111 -3.50564 
39 1 5.46407 9.9001 7.8513 -3.2421 
42 1 9.06009 6.11897 6.18409 -3.42327 
45 1 7.48278 5.45887 8.42784 -3.29256 
47 1 9.32633 7.24371 9.00429 -3.92085 
48 1 8.50032 8.27704 4.48442 -3.14485 
43 1 9.87236 8.79553 6.86318 -3.84885 
50 1 10.0178 4.61093 8.16475 -3.175 
11 1 12.014 5.64283 9.68757 -3.49513 
41 1 10.8671 7.40319 4.57597 -3.14292 
46 1 12.6784 8.63641 5.9009 -3.28061 
51 1 11.6162 6.30828 6.94246 -3.39814 
52 1 11.9717 8.32881 8.60877 -3.66795 
55 1 14.2759 9.42151 7.93735 -2.99585 
28 1 8.7214 12.6301 9.91334 -3.95843 
33 1 8.79214 14.32 7.93339 -3.30276 
34 1 6.91187 12.267 7.5186 -3.41808 
35 1 6.34626 14.1664 9.21022 -3.13417 
40 1 9.49187 11.6957 7.00892 -3.62459 
54 1 7.55773 10.2723 5.85644 -3.38345 
36 1 10.4356 10.4715 9.44273 -3.89659 
44 1 11.2761 13.0312 8.42283 -3.33016 
49 1 12.106 10.8118 7.20586 -3.50781 
53 1 10.5089 10.1549 4.8356 -3.22117 
31 1 10.5293 14.975 9.9266 -3.13601 
12 1 9.35796 5.10145 10.6419 -3.39692 
10 1 9.12253 6.7105 12.8551 -3.47723 
20 1 9.48201 9.07845 14.0886 -3.59616 
22 1 6.93881 8.47397 13.1843 -3.35195 
23 1 5.89055 9.13449 10.7452 -3.42597 
25 1 8.66689 8.98998 11.2219 -3.8401 
26 1 7.18755 6.69842 10.9179 -3.46968 
1 1 11.2638 5.14504 12.4172 -3.14072 
4 1 11.7003 7.50576 13.8194 -3.41677 
5 1 11.1932 7.64074 11.1762 -3.84046 
7 1 13.476 6.28643 12.0678 -3.13606 
8 1 13.5901 8.94653 12.4955 -3.42841 
9 1 14.0486 7.82807 10.0926 -3.26939 
29 1 6.07349 11.6425 10.0078 -3.4949 
15 1 7.33752 10.5436 14.8693 -3.15777 
16 1 8.04958 13.0572 14.333 -3.20933 
17 1 8.77802 11.4193 12.4774 -3.83939 
18 1 6.87743 13.5409 11.8676 -3.44982 
19 1 9.7351 11.3044 15.4842 -3.13304 
21 1 6.12446 11.0635 12.6634 -3.32421 
24 1 9.47033 14.1887 12.2938 -3.4482 
30 1 8.10172 15.4871 10.3881 -3.11824 
27 1 13.1149 10.4989 10.1081 -3.61805 
2 1 11.1641 10.1451 12.1602 -3.73752 
3 1 12.0781 10.1288 14.6346 -3.30494 
6 1 13.3666 11.5882 12.6964 -3.1536 
13 1 11.0675 12.5692 13.7523 -3.41242 
14 1 11.4485 12.6671 11.0532 -3.62657 
