/var/folders/35/zn93tsdx7p13vbrdj0l0gn9r0000gn/T/LAMMPS-_3t2nle4/data.lammps (written by ASE) 

55 	 atoms 
1  atom types
0.0 20.000000000  xlo xhi
0.0 20.000000000  ylo yhi
0.0 20.000000000  zlo zhi


Atoms 

     1   1 6.706550000 5.514425545 11.028697364
     2   1 8.035870000 7.462765545 9.764997364
     3   1 10.711520000 6.421155545 10.022297364
     4   1 5.613840000 8.058915545 10.899897364
     5   1 7.605530000 10.263245545 10.538397364
     6   1 5.241280000 10.919245545 10.974197364
     7   1 10.270620000 9.064725545 10.086297364
     8   1 12.955920000 8.299035545 10.688697364
     9   1 14.758720000 10.240845545 11.202297364
    10   1 12.135420000 10.875945545 11.128097364
    11   1 7.239830000 13.049245545 10.779697364
    12   1 9.751880000 12.062645545 10.268197364
    13   1 11.798720000 13.601945545 11.496697364
    14   1 9.507690000 14.705645545 10.479897364
    15   1 13.728620000 12.488045545 9.707097364
    16   1 6.651640000 6.733495545 13.401397364
    17   1 9.207730000 7.082625545 14.451997364
    18   1 9.061960000 5.811115545 12.056697364
    19   1 11.019720000 7.822245545 12.537697364
    20   1 5.766580000 9.332335545 13.144597364
    21   1 7.228520000 11.514445545 13.031797364
    22   1 7.927650000 9.389805545 14.766197364
    23   1 9.225780000 11.692045545 14.959397364
    24   1 10.690420000 9.379235545 14.818497364
    25   1 9.808010000 10.503945545 12.602697364
    26   1 8.249270000 8.357535545 12.300497364
    27   1 12.964820000 9.657615545 13.280597364
    28   1 11.660020000 12.007445545 13.832397364
    29   1 9.345190000 13.276145545 12.752297364
    30   1 13.948920000 12.284945545 12.518797364
    31   1 7.470602909 6.561405000 6.904992636
    32   1 9.897792909 6.101535000 5.886662636
    33   1 11.818392909 6.300885000 7.759902636
    34   1 5.748632909 10.854985000 7.550552636
    35   1 6.457502909 8.881045000 6.090792636
    36   1 7.519392909 11.115685000 5.040602636
    37   1 8.473642909 10.598985000 7.357542636
    38   1 8.835162909 8.500595000 5.199382636
    39   1 10.307992909 10.705285000 5.180042636
    40   1 11.437292909 10.429085000 7.717982636
    41   1 11.563292909 8.219735000 5.923442636
    42   1 12.975292909 10.264685000 5.330102636
    43   1 14.194992909 11.476085000 7.136912636
    44   1 6.882192909 13.062385000 6.798182636
    45   1 9.372402909 13.051985000 6.209602636
    46   1 11.053192909 14.723785000 7.625722636
    47   1 12.010392909 12.669385000 6.219562636
    48   1 9.325042909 5.276215000 8.385492636
    49   1 6.950402909 8.506335000 8.779932636
    50   1 9.579882909 8.086005000 7.801882636
    51   1 13.570692909 8.905825000 7.897272636
    52   1 7.283432909 12.337885000 9.346732636
    53   1 8.521432909 14.637785000 8.375722636
    54   1 10.050492909 12.483085000 8.907532636
    55   1 12.763192909 13.002885000 8.891692636
