ITEM: TIMESTEP
78
ITEM: NUMBER OF ATOMS
55
ITEM: BOX BOUNDS pp pp pp
0 20
0 20
0 20
ITEM: ATOMS id type x y z c_pea 
31 1 7.54166 6.61034 6.70831 -3.32139 
32 1 10.1026 6.28199 5.97088 -3.12828 
34 1 5.60807 10.9419 7.43263 -3.29831 
35 1 6.34503 8.97136 5.80712 -3.17339 
36 1 7.57087 11.2427 5.05032 -3.27688 
37 1 8.21477 10.3884 7.46071 -3.82803 
38 1 8.86754 8.62319 5.35469 -3.45084 
39 1 10.2403 10.9751 5.49114 -3.554 
41 1 11.4323 8.49447 6.32446 -3.46025 
42 1 12.938 10.5592 6.01358 -3.13069 
44 1 6.97777 13.1317 6.76661 -3.30671 
45 1 9.25942 13.5126 5.44454 -3.21521 
46 1 10.4631 15.1064 7.3773 -3.15543 
47 1 11.8416 12.9376 6.39656 -3.40109 
54 1 9.46991 12.7653 7.93373 -3.65157 
1 1 6.82424 5.36946 11.8586 -3.01276 
2 1 7.66709 6.28556 9.55965 -3.51103 
4 1 5.77975 7.64162 10.9501 -3.36599 
33 1 11.745 6.62579 8.33463 -3.44202 
50 1 9.34384 7.96122 8.14796 -3.8738 
3 1 10.2916 6.03142 10.5129 -3.54008 
48 1 9.48683 5.10687 8.0998 -3.14286 
26 1 8.47289 7.7606 11.8731 -3.85348 
8 1 13.0443 7.45689 10.7477 -3.27543 
6 1 5.41298 10.3081 10.084 -3.25352 
49 1 6.37292 8.42528 8.39526 -3.57592 
40 1 11.0844 10.6033 8.13101 -3.91751 
5 1 8.05741 9.82846 10.1773 -3.90441 
7 1 10.8613 8.73524 10.2549 -3.83714 
43 1 13.8143 11.4996 8.24639 -3.393 
51 1 13.1953 8.90026 8.45808 -3.51701 
9 1 14.5264 9.92122 10.5727 -3.30366 
10 1 12.2247 11.1369 10.6671 -3.81152 
11 1 7.7996 14.2667 11.0784 -3.18741 
52 1 7.0361 12.3471 9.40268 -3.66739 
12 1 9.73147 12.2223 10.5325 -3.85501 
14 1 10.1677 14.9099 10.1473 -3.40302 
53 1 8.01907 14.9065 8.49706 -3.23184 
13 1 12.224 13.69 11.6959 -3.42068 
15 1 14.4363 12.8087 10.3793 -3.12956 
55 1 12.0808 13.4537 8.99086 -3.62203 
16 1 6.68835 7.14297 13.7108 -3.24202 
17 1 9.21006 7.20781 14.6652 -3.1838 
18 1 9.12369 5.35184 12.8755 -3.12801 
19 1 11.0919 7.34473 12.7901 -3.54261 
20 1 6.25533 9.6069 12.5049 -3.32207 
21 1 7.61684 11.8398 12.2756 -3.57402 
22 1 8.03615 9.48587 14.3733 -3.36912 
23 1 9.23835 11.7715 14.5412 -3.17253 
24 1 10.7982 9.40953 14.7285 -3.30407 
25 1 9.87635 10.1532 12.3917 -3.83917 
28 1 11.6962 11.8181 13.5673 -3.46469 
27 1 12.7683 9.38264 12.6944 -3.5243 
30 1 14.1462 11.7003 12.6142 -3.13291 
29 1 9.76167 13.6661 12.7787 -3.35245 
