/var/folders/35/zn93tsdx7p13vbrdj0l0gn9r0000gn/T/LAMMPS-0u1vd49v/data.lammps (written by ASE) 

55 	 atoms 
1  atom types
0.0 20.000000000  xlo xhi
0.0 20.000000000  ylo yhi
0.0 20.000000000  zlo zhi


Atoms 

     1   1 7.462785000 7.618222636 7.916219909
     2   1 9.670315000 6.376102636 6.857699909
     3   1 11.686455000 8.096222636 6.559699909
     4   1 7.649605000 10.188212636 7.321389909
     5   1 10.452655000 10.753362636 6.809209909
     6   1 9.064855000 8.626642636 5.677249909
     7   1 11.202755000 9.676072636 4.392199909
     8   1 9.063855000 11.249262636 4.704299909
     9   1 11.675355000 12.202562636 4.955939909
    10   1 13.219555000 10.235662636 6.179879909
    11   1 6.644405000 7.001432636 10.342359909
    12   1 8.337345000 5.084212636 11.754159909
    13   1 9.167395000 7.597812636 11.175359909
    14   1 10.931955000 5.623482636 11.311259909
    15   1 11.567755000 6.449352636 8.802269909
    16   1 8.959025000 5.715582636 9.265039909
    17   1 5.558785000 9.383512636 9.125959909
    18   1 5.207945000 8.722442636 11.808559909
    19   1 7.808475000 9.709752636 10.196359909
    20   1 9.902655000 8.614012636 8.617579909
    21   1 11.933155000 8.293142636 10.765959909
    22   1 12.146755000 10.494762636 8.841739909
    23   1 13.589555000 8.327272636 8.461489909
    24   1 14.792055000 10.763162636 8.276099909
    25   1 7.029185000 6.961362636 13.044759909
    26   1 9.625375000 6.576222636 13.718559909
    27   1 12.059755000 7.100692636 13.224959909
    28   1 9.984172818 14.861087364 7.537860091
    29   1 8.174102818 13.258987364 6.402570091
    30   1 11.236672818 12.759287364 6.457140091
    31   1 6.635352818 11.907487364 8.364830091
    32   1 8.445992818 10.664787364 10.565500091
    33   1 11.217172818 11.346587364 10.196820091
    34   1 13.858672818 11.839887364 10.370400091
    35   1 14.713472818 9.667647364 11.848600091
    36   1 12.071972818 9.925287364 12.289000091
    37   1 6.341722818 12.300687364 11.017900091
    38   1 7.724622818 14.327387364 8.992300091
    39   1 9.436842818 12.387887364 8.522180091
    40   1 10.339872818 14.915787364 10.081870091
    41   1 8.794162818 13.311187364 11.259200091
    42   1 12.162472818 13.528587364 8.873730091
    43   1 11.837572818 13.323387364 11.828900091
    44   1 9.454192818 7.850167364 15.607800091
    45   1 6.794502818 9.808767364 12.525300091
    46   1 8.116272818 10.008287364 14.843200091
    47   1 9.410952818 8.468697364 12.765600091
    48   1 10.938172818 9.923417364 15.067500091
    49   1 9.812982818 11.285387364 12.883900091
    50   1 13.580472818 9.716947364 14.354600091
    51   1 14.020972818 11.939187364 12.950200091
    52   1 7.471332818 12.363687364 13.503200091
    53   1 9.423732818 12.219887364 15.454100091
    54   1 9.885772818 13.952087364 13.588700091
    55   1 11.932872818 12.276987364 14.392200091
