ITEM: TIMESTEP
102
ITEM: NUMBER OF ATOMS
55
ITEM: BOX BOUNDS pp pp pp
0 20
0 20
0 20
ITEM: ATOMS id type x y z c_pea 
9 1 11.0488 11.0885 3.94482 -3.06586 
1 1 7.52887 7.3813 7.10451 -3.4212 
2 1 10.374 6.61525 6.14854 -3.24622 
4 1 7.51266 10.1446 6.90567 -3.64672 
5 1 10.4912 10.4582 6.47491 -3.56563 
6 1 8.95276 8.69438 5.08478 -3.37358 
7 1 11.5554 8.63939 4.68738 -3.19636 
8 1 8.6335 11.4568 4.79182 -3.17956 
20 1 9.86597 8.37943 7.9028 -3.69515 
3 1 12.5345 8.46252 7.10565 -3.55637 
10 1 12.9802 10.8945 5.80137 -3.26008 
29 1 8.16371 12.8561 7.013 -3.36814 
30 1 10.6962 12.9879 5.89654 -3.3118 
11 1 6.75207 6.73232 9.60478 -3.36386 
12 1 8.1639 5.17735 11.1751 -3.13023 
13 1 9.59768 7.20828 10.2831 -3.5318 
14 1 10.7103 4.87185 10.6687 -3.12467 
15 1 11.7115 6.36605 8.64005 -3.50281 
16 1 9.04636 5.50316 8.38433 -3.39978 
21 1 12.1298 7.20693 11.3193 -3.55876 
23 1 13.843 7.94502 9.43504 -3.19448 
17 1 5.56009 8.90881 8.40349 -3.14069 
18 1 5.70051 9.71823 11.0466 -3.35935 
19 1 7.85154 9.15973 9.5771 -3.68698 
31 1 6.39251 11.5253 9.04833 -3.51879 
32 1 8.10228 11.3113 11.2231 -3.68097 
22 1 11.7299 9.64568 9.72534 -3.98801 
39 1 9.39466 11.308 8.75418 -3.82668 
47 1 9.90623 9.28792 11.8805 -3.85672 
24 1 14.0721 10.2847 8.27725 -3.21646 
34 1 13.5256 11.7264 10.4475 -3.45984 
35 1 13.8721 9.31506 11.774 -3.4492 
37 1 5.91169 12.3277 11.9436 -3.18006 
38 1 7.98965 13.6403 9.69075 -3.47258 
28 1 10.261 14.0031 8.39724 -3.32532 
33 1 10.6657 12.4716 10.8005 -3.81477 
40 1 10.1987 14.9794 10.937 -3.12537 
42 1 12.0874 12.0683 8.15151 -3.58924 
25 1 7.50109 7.7981 12.1042 -3.60186 
26 1 9.89742 6.47985 12.865 -3.42397 
45 1 6.96839 10.1717 13.4536 -3.52085 
44 1 9.08791 8.65136 14.355 -3.4465 
27 1 11.7927 8.3386 13.7259 -3.46236 
46 1 8.29531 10.7003 15.8395 -3.15445 
48 1 11.0137 10.3526 15.4298 -3.45577 
49 1 9.49689 11.561 13.5163 -3.74967 
36 1 11.9677 10.9165 12.6059 -3.68283 
50 1 13.6026 10.0911 14.5676 -3.13842 
51 1 14.4537 11.8953 12.952 -3.13741 
52 1 7.24451 12.6813 14.4258 -3.2275 
41 1 8.13531 13.9022 12.3043 -3.39705 
53 1 9.79065 12.8599 15.7671 -3.15498 
54 1 10.47 14.1302 13.4934 -3.34963 
43 1 12.6482 13.707 12.1214 -3.30028 
55 1 12.3469 12.5915 14.6744 -3.40344 
