/var/folders/35/zn93tsdx7p13vbrdj0l0gn9r0000gn/T/LAMMPS-923pqnef/data.lammps (written by ASE) 

55 	 atoms 
1  atom types
0.0 20.000000000  xlo xhi
0.0 20.000000000  ylo yhi
0.0 20.000000000  zlo zhi


Atoms 

     1   1 5.883929182 10.624041273 14.166269091
     2   1 5.501669182 8.434761273 12.982969091
     3   1 7.924669182 8.809571273 14.344669091
     4   1 8.506829182 11.370741273 14.175269091
     5   1 6.441709182 12.642041273 12.766069091
     6   1 10.556709182 9.479721273 14.898269091
     7   1 4.831239182 10.680141273 11.508569091
     8   1 7.847309182 7.328161273 12.164369091
     9   1 10.271809182 7.210101273 13.508169091
    10   1 7.295379182 10.214341273 11.727269091
    11   1 12.970709182 10.412641273 14.918869091
    12   1 5.720559182 8.015771273 10.428069091
    13   1 12.820509182 7.745861273 14.563869091
    14   1 11.166209182 11.807341273 13.500369091
    15   1 9.781409182 9.600461273 12.301669091
    16   1 8.993759182 12.530041273 11.805569091
    17   1 6.586979182 12.568841273 10.167469091
    18   1 7.253649182 5.894851273 10.014459091
    19   1 9.636549182 5.496491273 11.383369091
    20   1 6.181089182 10.120841273 9.017549091
    21   1 12.335309182 6.072181273 12.346569091
    22   1 12.556509182 9.091721273 12.351169091
    23   1 15.010909182 9.422231273 13.745769091
    24   1 8.456029182 8.552641273 9.756179091
    25   1 13.797809182 11.530941273 12.595169091
    26   1 12.337309182 13.585641273 11.688869091
    27   1 11.356709182 11.249341273 10.832669091
    28   1 10.972609182 7.695591273 10.541669091
    29   1 8.861649182 11.344341273 9.250859091
    30   1 10.964660818 5.824520000 6.545170909
    31   1 13.300460818 6.828800000 7.189590909
    32   1 7.351790818 9.805370000 7.075220909
    33   1 11.356460818 8.221860000 5.448330909
    34   1 8.951310818 7.689030000 6.712150909
    35   1 10.193260818 10.308570000 6.843730909
    36   1 11.872760818 11.085170000 5.081130909
    37   1 13.077760818 9.595850000 6.817390909
    38   1 8.333650818 12.214870000 6.310750909
    39   1 10.653560818 13.193470000 6.149880909
    40   1 8.805550818 14.393470000 8.007220909
    41   1 12.627960818 12.107770000 7.571240909
    42   1 9.152620818 5.492120000 8.417980909
    43   1 11.752860818 5.479130000 9.237090909
    44   1 14.230360818 6.140410000 9.670030909
    45   1 11.138860818 7.986700000 8.231110909
    46   1 8.927160818 9.648630000 9.241900909
    47   1 11.844560818 10.338870000 9.485090909
    48   1 12.210060818 7.879830000 10.833200909
    49   1 14.833860818 8.013090000 11.481000909
    50   1 14.159860818 8.692130000 8.990590909
    51   1 14.408660818 10.882470000 10.475200909
    52   1 10.005120818 12.290570000 8.811470909
    53   1 11.556660818 14.520870000 8.203190909
    54   1 12.625260818 12.984370000 10.234400909
    55   1 15.168760818 10.132970000 12.932700909
