/tmp/LAMMPS-p1rpsfl8/data.lammps (written by ASE) 

55 	 atoms 
1  atom types
5.110662051458284 14.889337948541716  xlo xhi
4.898829999999999 15.10117  ylo yhi
5.105745 14.894255000000001  zlo zhi


Atoms 

     1   1 13.698422051 10.794070000 11.499655000
     2   1 9.131902051 14.154770000 10.731055000
     3   1 11.496022051 15.101170000 11.612955000
     4   1 13.381222051 11.697070000 8.954545000
     5   1 11.622822051 12.578470000 12.190655000
     6   1 11.162222051 7.110620000 12.803855000
     7   1 8.442332051 8.707250000 11.979255000
     8   1 8.770702051 7.209710000 14.086755000
     9   1 10.971222051 9.841970000 12.469255000
    10   1 8.560682051 9.922170000 14.419255000
    11   1 9.647252051 14.133270000 13.373255000
    12   1 12.626922051 8.447610000 10.679355000
    13   1 8.963812051 11.758670000 12.019055000
    14   1 6.387532051 8.556750000 13.821155000
    15   1 7.836732051 12.474770000 14.522255000
    16   1 10.437922051 11.779570000 14.591555000
    17   1 7.093742051 13.794170000 12.464555000
    18   1 13.755622051 6.314620000 12.035055000
    19   1 11.042522051 8.941240000 14.894255000
    20   1 13.417622051 8.584900000 13.396555000
    21   1 6.499152051 11.030770000 12.587655000
    22   1 11.436822051 13.635670000 9.433015000
    23   1 13.626722051 13.524370000 10.879955000
    24   1 6.776922051 12.633670000 10.173455000
    25   1 13.964722051 7.780210000 6.906285000
    26   1 13.629022051 10.411970000 6.468135000
    27   1 12.002922051 9.243090000 8.077805000
    28   1 11.246822051 10.427870000 5.212695000
    29   1 14.161022051 6.701750000 9.384265000
    30   1 8.957172051 12.554470000 8.532255000
    31   1 8.903882051 11.628270000 5.859155000
    32   1 11.545722051 7.953640000 5.723905000
    33   1 11.309022051 11.970970000 7.255945000
    34   1 14.679322051 9.377500000 8.939995000
    35   1 9.038552051 9.034130000 5.105745000
    36   1 10.166782051 7.940440000 9.837655000
    37   1 5.414552051 9.268850000 8.702475000
    38   1 9.374532051 9.791070000 7.682785000
    39   1 11.822022051 6.451400000 7.994845000
    40   1 6.982542051 4.898830000 10.044955000
    41   1 7.785682051 10.286270000 9.892155000
    42   1 9.310402051 7.100440000 7.027345000
    43   1 6.855472051 11.198470000 7.520935000
    44   1 5.110662051 6.724220000 9.609355000
    45   1 5.615912051 8.886450000 11.255855000
    46   1 9.374462051 5.314760000 8.956845000
    47   1 7.021512051 8.554460000 6.818815000
    48   1 6.554182051 6.547190000 12.096255000
    49   1 6.867742051 5.921440000 7.609445000
    50   1 7.571422051 7.567580000 9.488585000
    51   1 9.072782051 5.916230000 11.567855000
    52   1 11.686622051 5.673810000 10.521155000
    53   1 11.280449882 8.411930000 10.264951137
    54   1 12.739078324 10.972670000 14.635991068
    55   1 14.889337949 10.993670000 10.523922795
