ITEM: TIMESTEP
26
ITEM: NUMBER OF ATOMS
5
ITEM: BOX BOUNDS pp pp pp
0 10
0 10
0 10
ITEM: ATOMS id type x y z c_pea 
2 1 4.73793 5.13033 3.6099 -2.76118 
4 1 4.53919 3.80697 5.84973 -2.76121 
1 1 6.67945 4.70334 5.04951 -2.57483 
3 1 2.88754 5.49501 5.18063 -2.57482 
5 1 5.07357 6.3603 5.88634 -2.76122 
