ITEM: TIMESTEP
216
ITEM: NUMBER OF ATOMS
55
ITEM: BOX BOUNDS ss ss ss
4.91457 15.089
5.30202 14.5136
4.28666 15.3006
ITEM: ATOMS id type x y z c_pea 
20 1 6.09622 6.14166 9.09484 -3.10107 
30 1 4.9157 8.45756 9.73108 -3.17424 
38 1 6.35863 8.2481 7.45812 -3.41775 
41 1 8.57386 6.67814 7.82416 -3.39182 
52 1 8.24553 8.34941 5.60637 -3.21249 
55 1 9.06909 9.33503 8.11654 -3.92802 
45 1 11.2594 7.40968 8.08422 -3.53207 
46 1 13.3812 8.92108 6.51228 -3.26453 
47 1 13.4869 8.52932 9.32298 -3.5033 
49 1 10.7454 8.80118 5.87849 -3.44569 
54 1 9.19614 10.6202 4.28773 -3.26005 
22 1 6.55441 10.5373 8.96187 -3.60607 
34 1 9.72789 11.4704 6.63696 -3.61419 
35 1 7.12495 10.6389 6.25072 -3.44475 
37 1 7.5165 12.8443 7.95112 -3.48138 
42 1 7.98961 12.961 5.21808 -3.1549 
53 1 9.54194 14.2856 7.06419 -3.30363 
40 1 9.9661 12.1716 9.18078 -3.76507 
13 1 8.97606 14.5126 9.671 -3.15316 
36 1 15.0879 10.2026 8.1862 -3.11817 
50 1 10.5457 13.1891 4.77198 -3.14449 
32 1 11.934 10.9742 5.04934 -3.36019 
33 1 13.8334 12.4261 9.00867 -3.47197 
39 1 13.9786 11.6296 6.41182 -3.15881 
43 1 11.9081 13.1441 7.25454 -3.54518 
48 1 11.9529 10.4164 8.07627 -3.94253 
23 1 7.30844 5.54541 11.3442 -3.28883 
51 1 7.58582 8.0528 10.0356 -3.75268 
14 1 9.48018 7.31129 14.8903 -3.29022 
21 1 8.71769 8.12834 12.4835 -3.89993 
25 1 9.29564 5.30301 12.9825 -3.14384 
26 1 5.73169 7.48533 12.0791 -3.35787 
27 1 6.90527 8.95866 14.178 -3.28484 
29 1 7.15183 6.33266 13.9945 -3.16501 
31 1 9.7029 6.20717 10.3241 -3.57823 
19 1 12.3573 6.41805 10.4054 -3.15815 
2 1 10.8083 8.72051 10.4104 -3.90509 
4 1 11.8438 8.76625 14.6083 -3.30938 
6 1 13.1004 8.67097 12.023 -3.51956 
11 1 11.2134 6.97782 12.7335 -3.4567 
5 1 7.82001 11.3226 13.2511 -3.47976 
7 1 9.6892 12.5793 14.5571 -3.148 
8 1 9.28627 9.92103 15.1653 -3.39802 
12 1 8.72297 10.4654 10.8202 -3.77688 
24 1 7.19817 12.6389 10.6667 -3.37655 
28 1 6.11392 10.0593 11.6415 -3.48758 
10 1 9.61537 13.0003 11.8438 -3.61576 
1 1 13.4914 10.8969 13.3312 -3.40757 
3 1 12.1069 11.2016 10.8109 -3.88101 
9 1 14.7408 10.5226 10.8271 -3.33742 
15 1 10.6112 10.3841 12.9035 -3.89938 
16 1 11.7393 11.2806 15.2996 -3.14763 
17 1 14.0369 12.9922 11.594 -3.1594 
18 1 11.9204 13.0283 13.1097 -3.40119 
44 1 11.7606 13.8719 10.2228 -3.42324 
