ITEM: TIMESTEP
144
ITEM: NUMBER OF ATOMS
55
ITEM: BOX BOUNDS pp pp pp
0 20
0 20
0 20
ITEM: ATOMS id type x y z c_pea 
29 1 8.23721 7.31019 6.22113 -3.44182 
42 1 8.30478 5.03864 7.72045 -3.14847 
30 1 10.4804 5.73258 6.5758 -3.1511 
33 1 6.23635 9.14172 6.40128 -3.2032 
46 1 6.01834 11.3828 7.74812 -3.37697 
28 1 10.7252 8.45398 6.50594 -3.57421 
34 1 8.66899 9.96465 5.41469 -3.49552 
37 1 11.1965 11.0795 6.0187 -3.46557 
51 1 13.0131 9.46707 7.60598 -3.41856 
32 1 6.90808 12.0038 5.40823 -3.22436 
35 1 8.80288 12.108 7.33402 -3.84772 
38 1 9.39929 12.4463 4.60109 -3.15526 
39 1 8.22228 14.3702 5.91487 -3.17504 
40 1 10.8394 13.7741 6.52125 -3.4474 
50 1 12.6533 12.2823 7.97846 -3.48802 
21 1 6.25894 7.41027 11.3352 -3.31367 
41 1 6.72803 7.18247 8.51556 -3.5133 
36 1 9.6084 7.26066 8.72438 -3.78717 
18 1 10.2471 6.3311 11.5702 -3.67948 
43 1 8.00768 5.56878 10.2643 -3.39283 
44 1 10.6976 4.93892 9.22159 -3.31331 
31 1 12.3999 6.78919 8.06891 -3.46066 
45 1 12.8359 6.09763 10.7025 -3.31877 
47 1 5.86169 9.48895 9.5642 -3.46775 
48 1 8.18213 9.51109 8.09384 -3.77586 
15 1 11.004 11.2166 11.3664 -3.89256 
20 1 8.51717 8.64787 10.8767 -3.9576 
49 1 10.6935 10.3891 8.64133 -3.83956 
22 1 11.6392 8.4285 10.1708 -3.80033 
24 1 8.17629 11.4029 10.2668 -3.97389 
23 1 14.2786 8.0486 9.52518 -3.167 
27 1 13.4282 10.5957 10.0494 -3.57255 
17 1 7.9633 14.2226 10.4574 -3.44597 
25 1 5.70575 12.327 10.1969 -3.2724 
52 1 6.86194 13.8434 8.11673 -3.33428 
19 1 10.7517 15.1256 10.9057 -3.26709 
53 1 10.3264 13.021 9.42441 -3.73543 
54 1 9.29842 15.1913 8.27794 -3.37911 
26 1 12.8882 13.2273 10.5296 -3.42875 
55 1 12.0393 14.9375 8.59458 -3.15863 
16 1 7.9293 5.92279 12.8416 -3.08595 
5 1 9.94059 6.84757 14.3608 -3.23332 
13 1 12.3316 6.71088 13.2995 -3.21369 
14 1 6.27983 10.1407 12.0351 -3.42 
6 1 7.7921 8.34988 13.5715 -3.43318 
1 1 9.81293 9.3307 15.2121 -3.1651 
3 1 11.0658 11.4638 14.1917 -3.41066 
4 1 8.66263 10.8208 13.1064 -3.62599 
11 1 10.6477 8.87165 12.7008 -3.75905 
2 1 12.4581 9.14364 14.5415 -3.23103 
9 1 13.5823 8.62818 12.067 -3.44907 
10 1 13.2981 11.1947 12.7551 -3.34954 
12 1 6.87474 12.7435 12.4444 -3.1566 
7 1 9.50608 13.294 12.4242 -3.49302 
8 1 12.0363 13.5912 12.8861 -3.1463 
