ITEM: TIMESTEP
162
ITEM: NUMBER OF ATOMS
55
ITEM: BOX BOUNDS ss ss ss
5.00481 15.788
5.22474 14.8299
5.39381 14.9644
ITEM: ATOMS id type x y z c_pea 
8 1 5.97583 7.29222 9.04044 -3.43096 
23 1 8.4386 8.70856 8.27634 -3.79926 
27 1 8.2583 5.99105 9.52454 -3.50478 
41 1 7.5246 6.36584 6.95765 -3.15569 
50 1 6.23901 8.55275 6.58956 -3.15476 
29 1 8.89282 8.34254 5.7283 -3.28247 
31 1 10.0969 6.52219 7.6211 -3.42561 
7 1 5.83346 9.95538 8.8605 -3.40937 
3 1 12.5312 6.99817 8.52069 -3.44402 
43 1 11.0875 9.14221 7.51002 -3.77593 
52 1 15.7869 9.83901 9.50455 -3.14005 
5 1 14.0277 9.11856 7.48551 -3.321 
39 1 12.8851 9.51524 9.82682 -3.93434 
2 1 11.053 5.22582 10.0785 -3.22831 
44 1 14.9488 7.48419 9.46083 -3.12981 
25 1 9.87672 11.9067 7.68373 -3.65517 
28 1 7.67626 10.7302 6.72498 -3.3248 
33 1 10.1853 10.3701 9.92843 -3.87352 
24 1 10.1045 10.6482 5.39483 -3.18073 
32 1 7.77356 11.5823 9.54077 -3.58249 
11 1 11.0871 13.1825 5.68005 -3.01507 
15 1 12.2152 12.2603 9.23073 -3.8828 
16 1 13.1844 13.8548 7.2544 -3.24958 
19 1 12.5221 11.2375 6.60781 -3.48276 
21 1 10.777 14.4589 7.94102 -3.18282 
42 1 14.3847 13.9594 9.64102 -3.18451 
36 1 14.691 11.729 8.12987 -3.38053 
14 1 10.3221 7.64954 10.3168 -3.89895 
22 1 6.57535 9.0249 13.3365 -3.42328 
40 1 5.00586 8.67277 11.1438 -3.17055 
48 1 9.08118 5.34626 11.8747 -3.15646 
53 1 8.96824 7.77569 12.9911 -3.67758 
55 1 6.6841 6.63211 11.7369 -3.30717 
26 1 7.67509 8.88216 10.7689 -3.78588 
54 1 8.72809 9.755 14.9634 -3.3249 
30 1 11.2737 6.27797 12.9164 -3.36204 
4 1 13.039 6.93394 11.1989 -3.51466 
12 1 10.7908 7.95135 14.9291 -3.16574 
13 1 13.2268 8.12713 13.9328 -3.22467 
18 1 11.4924 9.11087 12.316 -3.8707 
38 1 14.6828 8.97115 11.8351 -3.41245 
37 1 9.7624 13.2997 10.1917 -3.58683 
45 1 8.97393 10.6223 12.424 -3.86672 
46 1 6.14131 11.0829 11.5905 -3.42609 
47 1 6.98799 11.5783 14.0896 -3.16954 
49 1 7.99936 13.1046 12.1268 -3.32874 
6 1 9.5231 12.5098 14.3107 -3.41837 
10 1 11.4853 11.8798 11.9707 -3.8812 
34 1 11.9975 14.8288 10.2597 -3.30763 
1 1 11.3018 10.4999 14.6691 -3.47573 
9 1 12.1594 13.0301 14.3897 -3.16608 
17 1 14.3802 11.6058 10.9493 -3.56502 
20 1 13.4039 13.7588 12.2113 -3.31615 
35 1 13.6136 10.889 13.4232 -3.4259 
51 1 10.5978 14.3192 12.5859 -3.3168 
