/var/folders/35/zn93tsdx7p13vbrdj0l0gn9r0000gn/T/LAMMPS-rln53m80/data.lammps (written by ASE) 

5 	 atoms 
1  atom types
0.0 10.000000000  xlo xhi
0.0 10.000000000  ylo yhi
0.0 10.000000000  zlo zhi


Atoms 

     1   1 4.612549140 3.737832827 6.193207759
     2   1 3.145139784 5.015392057 4.696754469
     3   1 6.854860216 4.633930750 5.752922660
     4   1 5.367676336 4.473969460 3.806792241
     5   1 5.019762590 6.262167173 5.674532722
