/var/folders/35/zn93tsdx7p13vbrdj0l0gn9r0000gn/T/LAMMPS-6mj90d7p/data.lammps (written by ASE) 

5 	 atoms 
1  atom types
0.0 10.000000000  xlo xhi
0.0 10.000000000  ylo yhi
0.0 10.000000000  zlo zhi


Atoms 

     1   1 6.039774415 3.544711369 5.532793190
     2   1 3.863606071 4.549552348 6.061065433
     3   1 5.898992394 5.981950995 5.278300781
     4   1 6.136393929 4.998590700 4.228593174
     5   1 4.182293101 6.455288631 3.938934567
