ITEM: TIMESTEP
90
ITEM: NUMBER OF ATOMS
55
ITEM: BOX BOUNDS pp pp pp
0 20
0 20
0 20
ITEM: ATOMS id type x y z c_pea 
30 1 6.80506 7.49226 6.48207 -3.16019 
29 1 8.69418 5.82617 7.39615 -3.23303 
36 1 12.9734 7.30397 7.84389 -3.41287 
31 1 6.32019 9.91637 7.86401 -3.42915 
32 1 8.82267 9.39026 6.60064 -3.5381 
34 1 11.7476 9.43339 6.43561 -3.45404 
35 1 10.8318 11.5796 7.87874 -3.61817 
39 1 8.01965 11.8825 7.22778 -3.54207 
42 1 10.1704 11.4788 5.40414 -3.13473 
37 1 14.141 9.82895 7.74436 -3.27209 
43 1 12.7983 11.9081 6.29384 -3.1326 
38 1 7.4497 14.4102 7.77944 -3.04811 
40 1 9.80448 13.888 6.73917 -3.31901 
26 1 6.37083 6.69808 11.0076 -3.49719 
28 1 4.92441 7.58707 8.33369 -3.09259 
44 1 6.33561 5.48116 8.45554 -3.14421 
48 1 7.60447 7.86415 8.9448 -3.70708 
33 1 10.3171 7.81593 8.14589 -3.70368 
21 1 8.45488 5.10062 10.0492 -3.43869 
24 1 9.36345 7.42869 10.9365 -3.72485 
27 1 11.9429 7.27816 10.4817 -3.53784 
45 1 10.9436 5.28339 8.84526 -3.37496 
10 1 10.8079 5.01719 11.5216 -3.3656 
46 1 13.4957 5.35071 9.66073 -3.07577 
51 1 14.4647 7.99108 9.97337 -3.38003 
25 1 7.68015 9.46485 11.5262 -3.70499 
47 1 5.30832 9.15698 10.3359 -3.37828 
52 1 6.72872 11.7006 9.99243 -3.71365 
18 1 10.8062 9.58844 11.9264 -3.8761 
50 1 9.1048 10.1722 9.34871 -3.95833 
15 1 9.01339 11.806 11.9416 -3.82688 
49 1 12.1162 9.6609 9.32593 -3.80322 
20 1 14.1825 10.5995 10.8023 -3.43003 
22 1 6.95587 14.4748 10.266 -3.17631 
41 1 11.7863 14.103 8.4174 -3.3919 
23 1 11.4806 12.0143 10.6339 -3.82477 
19 1 11.3881 14.8027 10.8655 -3.30964 
53 1 9.16372 13.0935 9.49938 -3.77964 
55 1 9.42801 15.5935 9.12972 -3.22864 
5 1 8.97403 14.6117 11.9277 -3.44894 
17 1 13.5709 13.2679 11.41 -3.16635 
54 1 13.6131 12.2348 8.80827 -3.42715 
9 1 8.33026 6.07646 12.8243 -3.26024 
8 1 11.1198 7.05406 13.1959 -3.4322 
14 1 13.3986 5.931 12.1752 -3.08876 
6 1 7.49343 10.7649 14.064 -3.43311 
11 1 6.32169 8.17121 13.2541 -3.21408 
12 1 5.4546 10.7214 12.413 -3.18186 
2 1 10.2742 10.9504 14.2307 -3.36352 
4 1 8.96929 8.5204 13.7927 -3.46073 
16 1 13.3542 8.60297 12.4361 -3.39034 
7 1 12.763 11.1988 13.0183 -3.35205 
13 1 6.70112 13.0365 12.5021 -3.34221 
1 1 8.7353 13.176 14.2624 -3.16503 
3 1 11.1713 13.3261 13.097 -3.45231 
