/var/folders/35/zn93tsdx7p13vbrdj0l0gn9r0000gn/T/LAMMPS-0yzxlr5p/data.lammps (written by ASE) 

55 	 atoms 
1  atom types
0.0 20.000000000  xlo xhi
0.0 20.000000000  ylo yhi
0.0 20.000000000  zlo zhi


Atoms 

     1   1 7.670240182 6.816671909 7.386162000
     2   1 10.352220182 7.358171909 7.169892000
     3   1 6.073810182 9.027531909 6.984412000
     4   1 7.178460182 10.880171909 5.522362000
     5   1 8.349280182 8.433421909 5.302062000
     6   1 11.003120182 8.468951909 4.899052000
     7   1 9.786080182 10.837371909 5.248662000
     8   1 8.581570182 9.577431909 7.670992000
     9   1 10.311220182 14.744671909 7.205382000
    10   1 8.501150182 13.142571909 6.070092000
    11   1 5.444400182 7.278781909 8.862702000
    12   1 6.070480182 7.255471909 11.452322000
    13   1 6.979200182 5.347511909 9.552992000
    14   1 8.424180182 5.781101909 11.684722000
    15   1 9.673530182 5.736811909 9.163232000
    16   1 6.962400182 11.791071909 8.032352000
    17   1 6.085860182 9.723271909 9.640442000
    18   1 8.120180182 7.867431909 9.913092000
    19   1 8.773040182 10.548371909 10.233022000
    20   1 6.668770182 12.184271909 10.685422000
    21   1 8.051670182 14.210971909 8.659822000
    22   1 9.763890182 12.271471909 8.189702000
    23   1 9.121210182 13.194771909 10.926722000
    24   1 7.603130182 7.361351909 13.710722000
    25   1 7.121550182 9.692351909 12.192822000
    26   1 8.443320182 9.891871909 14.510722000
    27   1 7.798380182 12.247271909 13.170722000
    28   1 10.600299818 6.127715000 7.908428000
    29   1 12.886599818 7.289645000 7.485598000
    30   1 12.043799818 10.569895000 6.444828000
    31   1 11.875799818 13.382495000 6.742698000
    32   1 14.039199818 12.136495000 7.790468000
    33   1 11.885199818 7.400645000 10.190048000
    34   1 12.590299818 5.053805000 9.575908000
    35   1 13.841099818 6.173635000 11.731248000
    36   1 14.555599818 6.995515000 9.410248000
    37   1 10.659299818 9.114005000 8.294908000
    38   1 11.845599818 9.963295000 10.944748000
    39   1 13.559899818 9.556435000 8.683238000
    40   1 14.306799818 8.869765000 11.295248000
    41   1 14.145899818 11.565895000 10.501648000
    42   1 10.789899818 14.946195000 11.037048000
    43   1 11.813299818 11.789095000 9.056668000
    44   1 12.179099818 12.852995000 11.820048000
    45   1 12.871799818 14.092695000 9.391148000
    46   1 10.147479818 7.170955000 14.510148000
    47   1 11.333899818 5.707685000 12.408748000
    48   1 10.023649818 8.229895000 12.167948000
    49   1 11.019799818 9.646285000 14.837648000
    50   1 10.240989818 11.060095000 12.766748000
    51   1 9.187039818 11.690095000 15.100948000
    52   1 12.532299818 8.036475000 13.213148000
    53   1 13.187599818 10.671595000 13.169448000
    54   1 11.701599818 12.352295000 14.594248000
    55   1 9.853859818 13.761095000 13.189948000
