/var/folders/35/zn93tsdx7p13vbrdj0l0gn9r0000gn/T/LAMMPS-tln1n4sn/data.lammps (written by ASE) 

55 	 atoms 
1  atom types
0.0 20.000000000  xlo xhi
0.0 20.000000000  ylo yhi
0.0 20.000000000  zlo zhi


Atoms 

     1   1 5.273010818 10.116260000 9.424665727
     2   1 5.541410818 10.730420000 12.049215727
     3   1 5.635450818 12.907820000 10.515415727
     4   1 5.918740818 7.548740000 8.515175727
     5   1 6.112200818 11.982320000 7.858495727
     6   1 6.353520818 5.746530000 10.404315727
     7   1 6.223670818 9.606240000 6.567945727
     8   1 6.705050818 8.515250000 11.083715727
     9   1 7.132260818 12.587620000 13.034415727
    10   1 7.290380818 5.165660000 8.101665727
    11   1 7.276520818 11.839320000 5.437035727
    12   1 7.450620818 14.035020000 8.770585727
    13   1 7.791560818 9.946050000 13.439515727
    14   1 7.671320818 11.364120000 10.425615727
    15   1 7.879120818 6.425190000 12.324815727
    16   1 7.863690818 9.418510000 8.563745727
    17   1 8.042110818 14.291820000 11.307415727
    18   1 7.918290818 7.323310000 6.653975727
    19   1 8.526640818 14.120420000 6.327315727
    20   1 8.731550818 7.037640000 9.629085727
    21   1 8.884760818 4.544580000 10.209715727
    22   1 9.104310818 12.064320000 14.785515727
    23   1 8.859070818 11.804920000 7.613825727
    24   1 8.952790818 9.688590000 5.750795727
    25   1 9.398810818 7.607650000 14.054415727
    26   1 9.431740818 8.828200000 11.683615727
    27   1 9.651760818 11.740320000 12.194015727
    28   1 9.690360818 15.455420000 8.460125727
    29   1 9.913760818 14.126820000 13.264715727
    30   1 11.001189182 7.775694545 5.834284273
    31   1 13.626589182 7.428074545 5.962884273
    32   1 10.401489182 10.191404545 5.214484273
    33   1 10.393189182 4.915924545 9.612374273
    34   1 14.658889182 5.974064545 7.940564273
    35   1 13.079689182 4.967794545 9.794374273
    36   1 12.218389182 6.985054545 8.192514273
    37   1 14.442389182 7.266524545 10.231474273
    38   1 10.366389182 9.053064545 8.396854273
    39   1 10.611789182 11.741204545 7.266774273
    40   1 10.720989182 11.911204545 10.011674273
    41   1 12.823089182 9.454844545 9.650774273
    42   1 14.726989182 8.596544545 7.963744273
    43   1 12.577389182 9.782774545 6.856574273
    44   1 13.023189182 11.958704545 8.656624273
    45   1 11.166889182 14.134804545 8.472084273
    46   1 12.660889182 13.795004545 10.624074273
    47   1 10.533489182 5.268574545 12.296774273
    48   1 10.951289182 7.712444545 13.410474273
    49   1 11.882089182 7.038464545 10.915674273
    50   1 10.538189182 9.530284545 11.356474273
    51   1 11.451289182 10.427904545 13.724474273
    52   1 13.216489182 8.836044545 12.353274273
    53   1 12.968189182 11.353504545 11.562274273
    54   1 11.114789182 12.918404545 12.761474273
    55   1 10.122789182 14.667504545 11.035874273
