/var/folders/35/zn93tsdx7p13vbrdj0l0gn9r0000gn/T/LAMMPS-nr4xo2hd/data.lammps (written by ASE) 

5 	 atoms 
1  atom types
0.0 10.000000000  xlo xhi
0.0 10.000000000  ylo yhi
0.0 10.000000000  zlo zhi


Atoms 

     1   1 3.806919866 6.496191428 3.022740080
     2   1 5.821177599 6.645233151 6.977259920
     3   1 5.131602568 2.978502178 4.293918387
     4   1 5.523023120 7.021497822 3.412146232
     5   1 6.193080134 5.737427876 4.212253486
