/tmp/LAMMPS-bloxjexh/data.lammps (written by ASE) 

55 	 atoms 
1  atom types
5.081085000000002 14.918914999999998  xlo xhi
4.6646 15.3354  ylo yhi
4.573605 15.426395  zlo zhi


Atoms 

     1   1 13.352615000 11.136400000 13.393695000
     2   1 11.833615000 11.429100000 10.923495000
     3   1 9.409075000 13.529300000 11.581995000
     4   1 11.781215000 14.045400000 10.274935000
     5   1 13.889515000 13.083000000 11.598895000
     6   1 11.568115000 13.094700000 13.109395000
     7   1 11.134815000 6.879180000 14.226795000
     8   1 9.752915000 7.673090000 12.002895000
     9   1 6.982085000 8.552730000 11.889995000
    10   1 8.318575000 7.176200000 14.139595000
    11   1 10.464015000 10.252040000 13.075595000
    12   1 7.885725000 9.850750000 14.205795000
    13   1 9.064435000 12.375100000 14.079595000
    14   1 12.377815000 8.708040000 11.993595000
    15   1 8.221715000 10.966400000 11.633195000
    16   1 5.710465000 10.828500000 12.919895000
    17   1 11.347115000 11.365700000 15.268395000
    18   1 6.809105000 13.369200000 12.628495000
    19   1 14.918915000 8.921400000 13.076995000
    20   1 10.051515000 8.985280000 15.426395000
    21   1 12.687315000 8.985400000 14.787095000
    22   1 9.637315000 12.187200000 9.129605000
    23   1 5.475345000 10.416410000 10.274325000
    24   1 5.787445000 7.930930000 9.464775000
    25   1 7.064035000 12.765400000 9.945005000
    26   1 7.465115000 15.335400000 10.830355000
    27   1 9.452155000 14.920800000 9.155055000
    28   1 7.510425000 5.960460000 11.777695000
    29   1 7.778415000 10.044860000 8.785935000
    30   1 6.852515000 14.733300000 8.162785000
    31   1 6.989115000 12.165600000 7.154085000
    32   1 5.081085000 14.747000000 10.089995000
    33   1 11.262715000 9.461650000 9.888695000
    34   1 8.003235000 6.347340000 10.386695000
    35   1 12.792015000 7.722110000 11.079595000
    36   1 6.144955000 7.837080000 9.193995000
    37   1 5.939375000 7.852290000 6.572855000
    38   1 7.568705000 9.826770000 7.494755000
    39   1 8.946895000 11.371800000 5.721005000
    40   1 11.545715000 5.005580000 4.955545000
    41   1 8.680145000 8.823500000 9.674695000
    42   1 9.182365000 4.664600000 6.132935000
    43   1 10.604515000 9.121450000 7.108225000
    44   1 10.696915000 6.746830000 9.709795000
    45   1 9.732515000 11.472700000 8.485315000
    46   1 6.796305000 5.487750000 7.828265000
    47   1 12.489015000 7.500660000 5.450855000
    48   1 8.692155000 7.170170000 7.441895000
    49   1 9.957615000 7.010130000 4.858645000
    50   1 11.417415000 11.861000000 6.221445000
    51   1 9.213555000 4.727960000 8.711315000
    52   1 11.293715000 6.042490000 7.277745000
    53   1 12.943315000 8.150920000 8.260585000
    54   1 10.816215000 9.649650000 4.573605000
    55   1 8.140025000 8.856610000 5.085555000
