ITEM: TIMESTEP
256
ITEM: NUMBER OF ATOMS
55
ITEM: BOX BOUNDS ss ss ss
5.49868 13.5989
4.71144 15.2082
4.19226 15.9468
ITEM: ATOMS id type x y z c_pea 
37 1 6.97144 7.83229 6.40297 -3.43934 
38 1 5.53839 9.95413 7.50732 -3.23834 
42 1 8.81325 5.93573 6.04514 -3.42453 
49 1 8.41298 8.10051 4.19335 -3.13805 
40 1 10.6459 7.0071 4.30877 -3.1109 
43 1 9.92363 8.60481 6.55093 -3.84513 
47 1 12.4887 8.41028 5.30362 -3.14868 
52 1 11.4213 6.31636 6.80282 -3.41005 
53 1 12.8756 8.26674 7.96302 -3.41277 
55 1 7.7031 10.2355 5.5583 -3.41232 
30 1 9.35361 14.1684 7.82446 -3.22766 
31 1 7.09922 12.2906 7.16036 -3.40719 
54 1 10.4008 9.96258 4.46316 -3.23557 
39 1 9.67129 11.5526 6.79974 -3.62939 
50 1 12.1431 10.5483 6.72897 -3.4099 
24 1 6.8352 6.55828 10.9482 -3.39085 
36 1 5.87838 7.46276 8.67669 -3.28981 
41 1 8.70056 8.49309 10.8405 -3.86631 
46 1 7.26857 5.14831 8.51431 -3.15781 
48 1 8.7504 7.20692 8.5207 -3.71714 
29 1 7.90068 9.90223 8.45843 -3.89321 
34 1 9.22626 5.44351 10.6581 -3.40976 
23 1 5.97115 9.30127 10.5058 -3.52923 
51 1 9.87291 4.7125 8.2084 -3.15838 
33 1 10.6204 9.7191 8.98839 -3.92718 
44 1 11.2846 6.83542 9.56217 -3.66234 
14 1 11.3638 8.84204 11.5887 -3.69781 
35 1 13.598 7.96582 10.6453 -3.25609 
22 1 8.74617 12.4162 9.56155 -3.88826 
25 1 5.9329 11.7611 9.59147 -3.52472 
15 1 7.91643 11.1144 11.7815 -3.84377 
18 1 6.64272 13.6077 11.3435 -3.41534 
26 1 8.57751 15.2072 10.1941 -3.15593 
32 1 6.73233 14.2771 8.73197 -3.13945 
27 1 10.9875 14.2265 10.4312 -3.3495 
45 1 11.4971 12.4492 8.58962 -3.5516 
2 1 10.7828 11.4555 11.2728 -3.90375 
4 1 13.1844 12.8116 10.752 -3.16976 
5 1 13.1714 10.4372 9.50248 -3.49924 
9 1 6.72622 8.55823 12.9594 -3.53963 
10 1 8.18976 7.94302 15.2329 -3.14971 
28 1 8.87328 6.70832 12.9752 -3.49497 
11 1 9.37827 9.47759 13.3242 -3.6482 
8 1 11.4779 6.30017 12.2289 -3.30939 
7 1 10.9318 7.68678 14.5584 -3.39807 
19 1 13.2532 8.09587 13.3112 -3.17045 
20 1 9.79944 9.83578 15.9457 -3.14172 
12 1 7.28131 10.4824 14.7504 -3.39647 
3 1 9.23009 13.6481 12.3023 -3.53724 
13 1 7.096 12.889 13.8263 -3.17054 
16 1 5.49967 11.1548 12.5276 -3.22318 
21 1 11.8421 10.3365 14.166 -3.50831 
1 1 13.4909 10.5579 12.1364 -3.40052 
6 1 11.9073 12.9107 13.061 -3.24568 
17 1 9.63114 11.9992 14.3333 -3.48404 
