ITEM: TIMESTEP
162
ITEM: NUMBER OF ATOMS
55
ITEM: BOX BOUNDS pp pp pp
0 20
0 20
0 20
ITEM: ATOMS id type x y z c_pea 
28 1 6.93884 6.48024 6.38082 -3.15561 
30 1 9.52266 7.06288 5.80535 -3.24163 
32 1 5.94131 8.67834 7.73762 -3.4833 
33 1 7.37992 8.78394 5.40674 -3.1488 
34 1 7.4694 10.887 7.19435 -3.62364 
22 1 11.7953 11.5941 6.2641 -3.40367 
31 1 8.63692 8.25521 7.88987 -3.84341 
35 1 9.63077 10.007 5.63223 -3.40054 
10 1 11.5329 8.62179 6.83741 -3.45646 
14 1 11.5566 14.4242 7.02966 -3.29286 
37 1 9.40767 12.6913 6.71592 -3.52017 
38 1 8.94895 15.0145 7.73652 -3.18217 
7 1 13.818 12.8705 7.43985 -3.15434 
39 1 5.47648 6.03469 11.4257 -3.15696 
40 1 5.8581 6.14412 8.79325 -3.35558 
42 1 7.43838 4.60628 10.495 -3.15914 
41 1 7.71844 7.3637 10.351 -3.85293 
29 1 8.46786 5.46911 8.23564 -3.40078 
16 1 10.8643 6.45449 8.25928 -3.37854 
25 1 9.91883 5.7833 10.7316 -3.496 
11 1 12.3131 7.01255 11.4108 -3.20521 
3 1 13.0072 7.73173 8.95256 -3.18643 
44 1 5.41569 11.0964 9.02499 -3.32057 
45 1 5.20336 8.48933 10.249 -3.43591 
46 1 7.72344 10.1529 9.88582 -3.92735 
43 1 5.72127 10.5921 11.7942 -3.5119 
26 1 10.1541 10.4831 8.30652 -3.84132 
13 1 10.5469 8.48594 10.1645 -3.91138 
20 1 10.8398 11.1805 11.1207 -3.93653 
1 1 13.0539 10.3542 8.29468 -3.51806 
2 1 13.1787 9.56868 10.8534 -3.45724 
36 1 6.8208 13.3724 8.07891 -3.29914 
47 1 6.27186 13.0386 10.7212 -3.53779 
49 1 7.87006 15.1625 10.1444 -3.30618 
17 1 11.576 12.6812 8.95209 -3.67342 
18 1 10.6809 15.1774 9.66025 -3.43323 
48 1 8.88975 12.7491 9.56451 -3.88393 
24 1 9.70664 14.1023 11.9616 -3.51775 
4 1 13.9915 12.1641 10.1159 -3.37519 
6 1 13.308 14.7264 9.17659 -3.14831 
9 1 12.2878 13.7188 11.4927 -3.44289 
51 1 7.8987 6.00941 12.7432 -3.39858 
21 1 10.3163 7.00753 13.1345 -3.31442 
23 1 8.27209 7.93807 14.6396 -3.18197 
52 1 6.98767 10.3418 14.2857 -3.42083 
53 1 6.23018 8.14439 12.8275 -3.46886 
8 1 11.5542 9.34699 13.0066 -3.52665 
15 1 9.58818 10.2986 14.6036 -3.34278 
19 1 8.78796 9.08166 12.2744 -3.8429 
54 1 8.26865 11.7839 12.2118 -3.84282 
5 1 13.2144 11.5053 12.6309 -3.17313 
50 1 7.28999 14.557 12.7248 -3.14736 
55 1 5.88408 12.6167 13.5158 -3.14008 
12 1 10.8958 12.3166 13.5961 -3.40494 
27 1 8.38382 12.842 14.5648 -3.2453 
