/var/folders/35/zn93tsdx7p13vbrdj0l0gn9r0000gn/T/LAMMPS-7qqt7ny3/data.lammps (written by ASE) 

5 	 atoms 
1  atom types
0.0 10.000000000  xlo xhi
0.0 10.000000000  ylo yhi
0.0 10.000000000  zlo zhi


Atoms 

     1   1 4.118192719 6.389044671 6.236704062
     2   1 3.892501794 3.983854745 5.801827298
     3   1 6.107498206 5.277421566 5.324722142
     4   1 5.207692471 3.610955329 3.763295938
     5   1 3.988917099 5.738704955 3.873488273
