ITEM: TIMESTEP
2
ITEM: NUMBER OF ATOMS
5
ITEM: BOX BOUNDS pp pp pp
0 10
0 10
0 10
ITEM: ATOMS id type x y z c_pea 
4 1 5.2077 3.61095 3.76328 -2.57482 
5 1 3.98892 5.7387 3.87348 -2.76121 
2 1 3.89249 3.98387 5.80184 -2.76121 
1 1 4.11819 6.38904 6.23672 -2.57482 
3 1 6.1075 5.27742 5.32472 -2.76121 
