ITEM: TIMESTEP
72
ITEM: NUMBER OF ATOMS
55
ITEM: BOX BOUNDS pp pp pp
0 20
0 20
0 20
ITEM: ATOMS id type x y z c_pea 
1 1 7.93088 7.67655 6.38038 -3.41838 
2 1 9.84197 5.88884 6.33319 -3.15464 
3 1 12.107 6.44477 7.77176 -3.47346 
4 1 6.07974 9.69993 6.49569 -3.29786 
20 1 5.62703 11.8985 7.80093 -3.25625 
5 1 10.8698 8.36507 6.24466 -3.44571 
6 1 8.81636 10.1764 6.07207 -3.59105 
7 1 11.7167 10.8901 6.03412 -3.2791 
10 1 7.10492 12.278 5.74123 -3.25425 
11 1 8.5559 14.4391 6.30644 -3.15304 
12 1 9.72866 12.4406 5.16632 -3.14524 
13 1 11.092 13.3173 7.23392 -3.53027 
14 1 7.91527 5.61609 8.26038 -3.32184 
16 1 5.97118 7.5033 8.14258 -3.21437 
15 1 7.31464 7.3195 10.4554 -3.61238 
17 1 9.6306 5.69316 10.4831 -3.53082 
18 1 9.61662 7.64097 8.57463 -3.85423 
19 1 10.4415 4.49425 8.3686 -3.09777 
30 1 11.7699 7.72597 10.2733 -3.79477 
31 1 12.3746 5.12712 10.2012 -3.31977 
32 1 13.7753 6.78084 11.8997 -3.16896 
33 1 14.2287 6.98707 9.34431 -3.16237 
21 1 5.15289 9.73157 9.3149 -3.20433 
23 1 7.65405 9.61291 8.6511 -3.83245 
44 1 6.66335 9.7587 11.5922 -3.50839 
22 1 8.86689 10.9447 10.6471 -3.78288 
24 1 10.4833 10.3221 8.29576 -3.85464 
34 1 11.9437 10.4398 10.5922 -3.7571 
46 1 9.46961 8.42631 11.7019 -3.95167 
9 1 12.9385 9.06704 8.11957 -3.57099 
35 1 14.2142 9.23056 10.8732 -3.39439 
25 1 12.9952 11.7538 8.2925 -3.44733 
26 1 6.41573 12.1091 10.2305 -3.49443 
27 1 6.87029 14.2428 8.35656 -3.22795 
8 1 8.56039 12.2982 8.06531 -3.91978 
28 1 9.60835 15.0465 8.6148 -3.34936 
37 1 10.7263 12.8163 9.99092 -3.80809 
38 1 8.33179 13.972 10.6899 -3.5404 
39 1 10.8515 15.3658 10.9032 -3.15871 
36 1 14.109 12.0559 10.6266 -3.22613 
40 1 12.7827 14.2403 9.37488 -3.21344 
41 1 7.15604 7.79151 13.2461 -3.11434 
29 1 8.63109 5.88131 12.851 -3.09126 
42 1 9.86129 7.7718 14.307 -3.32454 
43 1 11.2786 6.13823 12.5974 -3.42285 
45 1 8.44677 9.98843 13.8671 -3.50277 
47 1 11.0712 10.1774 14.9864 -3.27917 
48 1 10.5416 11.3546 12.6923 -3.75053 
49 1 12.0879 8.7252 12.9199 -3.65791 
50 1 13.3149 11.0729 13.0257 -3.40276 
51 1 7.70344 12.2906 12.7375 -3.43549 
52 1 9.3111 12.274 14.9779 -3.15587 
53 1 9.89535 13.9745 12.9571 -3.41757 
55 1 11.8524 12.7509 14.59 -3.15932 
54 1 12.4558 13.509 12.0636 -3.49484 
