/var/folders/35/zn93tsdx7p13vbrdj0l0gn9r0000gn/T/LAMMPS-4w_ohath/data.lammps (written by ASE) 

55 	 atoms 
1  atom types
0.0 20.000000000  xlo xhi
0.0 20.000000000  ylo yhi
0.0 20.000000000  zlo zhi


Atoms 

     1   1 11.005104909 6.957381182 5.558675000
     2   1 12.398604909 5.346431182 7.289535000
     3   1 13.291004909 7.810251182 6.167005000
     4   1 14.646704909 6.714421182 8.137745000
     5   1 11.061504909 9.551371182 4.761205000
     6   1 11.192504909 9.360301182 7.297295000
     7   1 13.977904909 9.332711182 8.352725000
     8   1 13.354804909 10.438211182 5.957795000
     9   1 11.377504909 12.090411182 6.025965000
    10   1 11.492304909 14.002211182 8.234905000
    11   1 10.959304909 4.818101182 9.669005000
    12   1 12.010404909 7.332211182 8.884605000
    13   1 11.903004909 6.614481182 11.610095000
    14   1 13.539804909 5.260291182 9.883655000
    15   1 14.108304909 7.908171182 10.594895000
    16   1 11.505704909 9.677401182 10.185915000
    17   1 13.903104909 10.753611182 10.747795000
    18   1 12.864104909 11.749511182 8.436115000
    19   1 11.057304909 12.390211182 10.757195000
    20   1 11.142004909 15.113011182 10.569995000
    21   1 13.321504909 13.481911182 10.668295000
    22   1 10.893404909 7.150851182 13.984595000
    23   1 11.394404909 9.923061182 14.763895000
    24   1 12.760204909 11.697011182 12.941095000
    25   1 12.730504909 8.998571182 12.636295000
    26   1 11.575804909 14.094511182 12.978495000
    27   1 11.495304909 12.553211182 15.238795000
    28   1 6.374345091 6.770455000 8.057209909
    29   1 8.711655091 6.784415000 6.693159909
    30   1 7.853245091 9.169655000 7.455019909
    31   1 9.873335091 9.504955000 5.587099909
    32   1 8.973695091 11.633685000 6.853909909
    33   1 7.940335091 14.079485000 7.936059909
    34   1 10.046705091 14.084385000 6.542709909
    35   1 5.353295091 7.085295000 10.505149909
    36   1 6.772415091 4.949145000 10.157849909
    37   1 8.381075091 4.766015000 8.282359909
    38   1 9.456745091 5.143015000 11.046549909
    39   1 8.404825091 7.230645000 9.583519909
    40   1 6.556675091 9.269735000 9.854269909
    41   1 7.405375091 11.670685000 9.042749909
    42   1 6.517925091 11.480585000 11.572549909
    43   1 8.424245091 9.014945000 12.000149909
    44   1 9.558815091 9.904745000 9.531969909
    45   1 9.238095091 11.673485000 11.631449909
    46   1 7.841445091 13.923985000 10.546149909
    47   1 10.058995091 12.719385000 9.169339909
    48   1 10.131015091 15.233985000 9.123639909
    49   1 7.293985091 6.521615000 12.202049909
    50   1 9.680045091 6.890745000 13.441149909
    51   1 7.356445091 8.067765000 14.394749909
    52   1 5.775005091 8.950025000 12.461849909
    53   1 7.459915091 10.742285000 13.935049909
    54   1 9.668925091 9.309635000 14.752549909
    55   1 7.815975091 13.354085000 13.137049909
