ITEM: TIMESTEP
162
ITEM: NUMBER OF ATOMS
55
ITEM: BOX BOUNDS pp pp pp
0 20
0 20
0 20
ITEM: ATOMS id type x y z c_pea 
29 1 7.88672 6.92979 6.63341 -3.45283 
28 1 5.5892 7.42361 7.87531 -3.19225 
1 1 10.5283 7.44062 6.47496 -3.5148 
2 1 12.1717 5.63758 7.51834 -3.12854 
30 1 6.65398 9.55612 6.65071 -3.23494 
5 1 11.4947 9.84113 5.4221 -3.28274 
6 1 11.1939 10.2229 7.9428 -3.72675 
31 1 8.88402 9.12824 5.26365 -3.20179 
32 1 9.24451 11.523 6.3325 -3.62969 
3 1 12.9888 8.18845 7.38115 -3.50276 
8 1 13.8115 10.5717 6.8681 -3.17116 
33 1 7.8494 13.7638 7.27724 -3.14282 
9 1 11.9824 12.4032 6.48384 -3.40352 
34 1 10.2032 14.216 6.35912 -3.1334 
35 1 5.59812 6.56032 10.4475 -3.25513 
36 1 7.38864 4.43937 10.3809 -3.12211 
37 1 6.64546 5.07251 8.08963 -3.11271 
39 1 7.95498 7.00165 9.55282 -3.76878 
11 1 9.48399 5.14247 8.29212 -3.51461 
38 1 9.73051 5.31247 11.1869 -3.52613 
12 1 10.8013 7.32143 9.23868 -3.9113 
14 1 11.9067 4.81504 9.84582 -3.13456 
13 1 12.0151 6.76761 11.7816 -3.63493 
4 1 13.6403 6.95256 9.63594 -3.43293 
40 1 6.34358 9.29633 9.51527 -3.51133 
41 1 7.40713 11.5046 8.47965 -3.55795 
42 1 6.9318 11.3802 11.2591 -3.32244 
44 1 8.80257 9.10334 8.03378 -3.75905 
45 1 9.26001 10.4821 10.4187 -3.90411 
19 1 11.4286 11.9714 11.3609 -3.86389 
43 1 9.3137 8.03453 11.672 -3.79387 
16 1 12.2693 9.39154 10.1766 -3.73073 
7 1 14.652 9.54147 9.2331 -3.28482 
17 1 14.0829 11.1318 11.4829 -3.4899 
18 1 13.1094 11.9946 9.04863 -3.66993 
46 1 7.92307 13.681 10.0289 -3.38452 
20 1 10.4935 14.6189 10.7256 -3.43537 
47 1 10.0886 12.6428 8.76611 -3.90869 
48 1 9.43068 15.4284 8.50231 -3.14131 
10 1 12.0241 14.4496 8.44787 -3.33625 
21 1 13.1269 13.9496 10.9893 -3.29183 
49 1 7.46668 6.13169 12.4446 -3.39934 
50 1 10.1802 6.59567 13.7706 -3.36107 
22 1 12.6256 7.69756 14.2478 -3.17234 
52 1 6.69406 8.70008 12.0277 -3.44428 
51 1 8.0659 8.00929 14.2689 -3.1729 
53 1 8.67745 10.3522 13.2195 -3.59049 
54 1 10.4376 9.05482 15.0252 -3.26993 
25 1 11.3478 9.46669 12.6286 -3.68073 
27 1 10.9461 11.6944 14.1631 -3.45739 
15 1 14.0901 8.51103 12.0072 -3.41222 
23 1 13.3581 10.2384 14.0944 -3.26878 
55 1 9.0383 12.8351 12.3014 -3.47215 
26 1 11.2687 14.1705 13.1541 -3.13425 
24 1 13.3546 12.7575 13.4016 -3.16229 
