/tmp/LAMMPS-ko9bg0rp/data.lammps (written by ASE) 

55 	 atoms 
1  atom types
4.524319745464382 15.475680254535618  xlo xhi
2.613603259113874 17.386396740886127  ylo yhi
4.9210312382020795 15.07896876179792  zlo zhi


Atoms 

     1   1 11.300730255 9.461932434 11.538868762
     2   1 12.007280255 12.190732434 12.205368762
     3   1 7.015570255 11.628332434 8.281528762
     4   1 6.889740255 8.287462434 14.026668762
     5   1 9.111070255 8.757562434 15.078968762
     6   1 8.800050255 7.485092434 7.565478762
     7   1 13.142280255 7.518642434 9.853868762
     8   1 9.283340255 12.188632434 12.091368762
     9   1 11.333480255 8.142042434 13.909268762
    10   1 9.269400255 10.683432434 9.819668762
    11   1 8.687530255 9.631332434 12.576868762
    12   1 7.059450255 9.068372434 8.974278762
    13   1 11.314860255 6.587402434 11.702968762
    14   1 6.892850255 10.908732434 10.977768762
    15   1 8.922250255 6.937482434 13.000168762
    16   1 7.091540255 6.370802434 9.429268762
    17   1 9.034550255 5.263192434 10.810768762
    18   1 13.331380255 10.215232434 13.530368762
    19   1 9.221020255 7.886282434 10.347968762
    20   1 7.985320255 13.328332434 9.977768762
    21   1 8.812920255 4.892122434 8.161948762
    22   1 10.679650255 10.730632434 14.054268762
    23   1 13.680380255 7.856302434 12.522568762
    24   1 10.972190255 6.062302434 9.003028762
    25   1 6.727140255 8.055312434 11.479068762
    26   1 11.292280255 11.798132434 7.260018762
    27   1 10.365280255 15.085132434 10.669138762
    28   1 14.350180255 8.950312434 7.531428762
    29   1 13.866080255 11.282732434 6.537708762
    30   1 15.036480255 8.944712434 10.098238762
    31   1 10.575380255 7.111032434 5.932118762
    32   1 11.516280255 12.948632434 9.841028762
    33   1 12.997280255 6.870782434 6.669908762
    34   1 13.430880255 7.000182434 9.358208762
    35   1 12.571480255 14.431132434 12.248868762
    36   1 14.236780255 10.397832434 12.050968762
    37   1 11.548380255 8.651042434 8.190398762
    38   1 8.327430255 11.716432434 6.921618762
    39   1 9.107590255 13.622232434 8.641588762
    40   1 13.020080255 10.746832434 9.256628762
    41   1 13.730380255 13.323432434 8.146728762
    42   1 9.848410255 13.644932434 5.999648762
    43   1 14.188580255 12.794232434 10.824778762
    44   1 15.475680255 11.285932434 8.791818762
    45   1 9.460120255 9.369132434 6.620748762
    46   1 10.246680255 11.268632434 4.949618762
    47   1 12.135780255 9.413532434 5.700658762
    48   1 11.387680255 14.744132434 7.818368762
    49   1 13.006480255 15.253632434 9.823988762
    50   1 11.723073364 13.431152538 4.921031238
    51   1 8.038011587 2.613603259 11.367354684
    52   1 11.703706051 17.386396741 6.704022753
    53   1 4.524319745 12.683412202 7.279691657
    54   1 6.934922643 9.315370401 14.846612041
    55   1 7.918791009 16.122445656 7.829868243
