/var/folders/35/zn93tsdx7p13vbrdj0l0gn9r0000gn/T/LAMMPS-u41d7nwt/data.lammps (written by ASE) 

5 	 atoms 
1  atom types
0.0 10.000000000  xlo xhi
0.0 10.000000000  ylo yhi
0.0 10.000000000  zlo zhi


Atoms 

     1   1 4.925969436 3.734563450 3.860679099
     2   1 6.618359436 5.411553450 4.450519099
     3   1 5.457729398 3.736686313 5.499494966
     4   1 5.402025128 6.265436550 6.139320901
     5   1 3.381640564 5.045552046 5.465402940
