ITEM: TIMESTEP
26
ITEM: NUMBER OF ATOMS
5
ITEM: BOX BOUNDS pp pp pp
0 10
0 10
0 10
ITEM: ATOMS id type x y z c_pea 
1 1 4.8396 3.5807 3.64363 -2.57482 
2 1 6.17551 5.55351 4.23382 -2.76121 
3 1 5.58481 3.70556 5.97867 -2.76117 
5 1 3.71083 5.2575 5.03656 -2.76124 
4 1 5.47498 6.09652 6.52274 -2.57482 
