/var/folders/35/zn93tsdx7p13vbrdj0l0gn9r0000gn/T/LAMMPS-8e6jxoh2/data.lammps (written by ASE) 

55 	 atoms 
1  atom types
0.0 20.000000000  xlo xhi
0.0 20.000000000  ylo yhi
0.0 20.000000000  zlo zhi


Atoms 

     1   1 11.537625000 7.845744091 5.401685545
     2   1 8.964895000 7.361354091 6.062735545
     3   1 9.009805000 5.957754091 8.345875545
     4   1 11.332525000 4.893924091 9.614105545
     5   1 11.505225000 6.630094091 7.649845545
     6   1 6.573085000 7.286704091 7.550875545
     7   1 13.787525000 7.857304091 7.178665545
     8   1 6.807065000 5.691954091 9.687345545
     9   1 9.991225000 9.965844091 5.194315545
    10   1 9.189965000 5.293594091 11.056255545
    11   1 13.295125000 6.859584091 9.788655545
    12   1 7.588385000 9.628544091 6.643755545
    13   1 12.611125000 10.083344091 6.205375545
    14   1 10.100025000 9.055124091 7.719505545
    15   1 11.888725000 5.869284091 12.019455545
    16   1 10.526025000 7.492694091 10.214555545
    17   1 8.009445000 8.349744091 9.429065545
    18   1 5.273975000 7.812874091 10.100955545
    19   1 11.371225000 12.345544091 5.289795545
    20   1 14.726025000 10.222844091 7.942665545
    21   1 12.438125000 9.306334091 8.998985545
    22   1 7.400725000 7.125264091 11.837255545
    23   1 5.734505000 9.917944091 8.690435545
    24   1 8.807175000 12.112544091 6.245835545
    25   1 14.232925000 7.029884091 12.246855545
    26   1 6.279325000 11.966044091 7.144755545
    27   1 9.825225000 7.007204091 13.181055545
    28   1 11.070625000 11.707444091 7.880975545
    29   1 8.819936636 13.742675909 6.347484455
    30   1 11.362656636 13.121975909 7.170664455
    31   1 6.405496636 11.604575909 7.878664455
    32   1 7.964616636 10.986375909 10.445784455
    33   1 9.725036636 8.450455909 11.703784455
    34   1 12.882256636 11.727575909 9.087964455
    35   1 14.485456636 10.927875909 11.113984455
    36   1 12.194856636 9.967945909 11.630784455
    37   1 7.743916636 13.657275909 8.790754455
    38   1 5.928746636 12.530075909 10.535584455
    39   1 10.305856636 12.774175909 9.798884455
    40   1 10.766856636 15.106075909 11.093084455
    41   1 9.983656636 15.077675909 8.480294455
    42   1 8.335406636 13.914075909 11.327584455
    43   1 12.487956636 14.397675909 9.267914455
    44   1 12.440156636 12.878775909 11.575484455
    45   1 9.692106636 7.229905909 14.074584455
    46   1 12.285656636 7.545865909 13.132884455
    47   1 5.834706636 10.352675909 12.069384455
    48   1 9.397606636 11.686575909 14.805684455
    49   1 8.084856636 9.568305909 13.459684455
    50   1 9.945056636 11.362575909 12.214184455
    51   1 10.894856636 9.557975909 14.227984455
    52   1 13.797056636 9.845285909 13.609884455
    53   1 12.086756636 11.884475909 13.983984455
    54   1 7.425556636 12.209875909 13.054584455
    55   1 10.207056636 13.749075909 13.284884455
