/var/folders/35/zn93tsdx7p13vbrdj0l0gn9r0000gn/T/LAMMPS-1mpwq5a9/data.lammps (written by ASE) 

55 	 atoms 
1  atom types
0.0 20.000000000  xlo xhi
0.0 20.000000000  ylo yhi
0.0 20.000000000  zlo zhi


Atoms 

     1   1 14.580000091 8.129071909 9.034067455
     2   1 14.435800091 10.615201909 10.036387455
     3   1 13.962400091 13.108201909 11.033087455
     4   1 14.020100091 10.130431909 7.267667455
     5   1 13.738000091 12.648201909 8.374527455
     6   1 13.331300091 10.891801909 12.464487455
     7   1 13.167300091 8.396891909 11.444487455
     8   1 13.321300091 12.213701909 5.727887455
     9   1 12.560700091 6.509411909 9.591717455
    10   1 12.753600091 7.645081909 7.100737455
    11   1 12.165500091 9.383401909 9.106247455
    12   1 11.688300091 8.477401909 13.659287455
    13   1 11.618900091 11.112201909 14.441087455
    14   1 11.997500091 14.552501909 9.821687455
    15   1 11.672100091 13.121201909 12.472087455
    16   1 11.731300091 11.887501909 10.080287455
    17   1 12.131500091 9.774071909 5.360667455
    18   1 11.503900091 6.240471909 12.037787455
    19   1 11.875600091 14.099401909 7.145897455
    20   1 11.258300091 11.363101909 7.313607455
    21   1 10.709200091 10.284291909 12.001787455
    22   1 10.845700091 12.387901909 4.905667455
    23   1 10.346800091 8.011281909 10.488287455
    24   1 10.363200091 6.236941909 8.194227455
    25   1 10.259800091 8.692151909 7.226487455
    26   1 9.777100091 14.678001909 11.315087455
    27   1 9.446470091 12.510901909 13.777087455
    28   1 9.251459909 6.864698091 7.279362545
    29   1 6.307429909 10.028528091 6.541102545
    30   1 8.517329909 11.378528091 5.532772545
    31   1 8.387089909 8.748138091 5.609392545
    32   1 6.993029909 12.527228091 7.593392545
    33   1 8.846769909 14.038128091 6.195992545
    34   1 6.728819909 7.751788091 8.258612545
    35   1 6.650529909 6.493898091 10.790232545
    36   1 7.946929909 5.321998091 9.031692545
    37   1 9.078229909 7.726398091 9.915732545
    38   1 9.183109909 5.702938091 11.597332545
    39   1 5.687499909 10.727328091 8.968782545
    40   1 6.806779909 9.136338091 10.762232545
    41   1 8.048289909 11.656028091 10.389532545
    42   1 5.419999909 11.451628091 11.465932545
    43   1 9.675819909 12.131728091 7.928252545
    44   1 8.350489909 9.811088091 8.253792545
    45   1 6.290899909 13.530928091 10.109032545
    46   1 8.535669909 14.488028091 8.823232545
    47   1 8.592939909 14.563328091 11.455432545
    48   1 7.848099909 7.633278091 12.868232545
    49   1 7.226979909 10.437648091 13.169232545
    50   1 9.552939909 9.551058091 11.925332545
    51   1 8.806189909 9.183868091 14.838832545
    52   1 9.572569909 12.171628091 12.674932545
    53   1 8.627659909 11.870428091 15.094332545
    54   1 6.936759909 13.079428091 12.895032545
    55   1 8.957809909 14.393328091 14.143632545
