/tmp/LAMMPS-nalefe0l/data.lammps (written by ASE) 

55 	 atoms 
1  atom types
4.131269999999999 15.868730000000001  xlo xhi
4.493899999999999 15.5061  ylo yhi
4.950174999999999 15.049825000000002  zlo zhi


Atoms 

     1   1 11.508130000 8.836560000 8.902605000
     2   1 11.675230000 5.052070000 12.802525000
     3   1 11.679930000 9.313780000 11.862225000
     4   1 12.593030000 10.211400000 14.230225000
     5   1 8.039360000 11.047100000 14.339225000
     6   1 7.075740000 11.266000000 10.289725000
     7   1 13.964830000 9.238340000 10.156525000
     8   1 14.164930000 11.742200000 9.162375000
     9   1 9.323380000 13.131100000 10.098125000
    10   1 11.862730000 11.694700000 10.517425000
    11   1 11.264530000 14.451000000 11.541625000
    12   1 8.714460000 9.204850000 11.611825000
    13   1 15.868730000 8.380040000 8.469495000
    14   1 10.347750000 6.979230000 10.954925000
    15   1 10.002590000 9.234600000 14.186325000
    16   1 9.640150000 13.858000000 13.609725000
    17   1 6.304270000 8.705370000 10.481625000
    18   1 12.092930000 7.495940000 13.916225000
    19   1 13.023830000 6.821960000 11.421425000
    20   1 9.869970000 11.519400000 12.372325000
    21   1 13.719130000 9.566270000 7.362325000
    22   1 13.802630000 13.578500000 11.129825000
    23   1 8.771330000 5.117940000 9.556125000
    24   1 7.603880000 6.598100000 11.575625000
    25   1 9.349860000 4.493900000 11.924125000
    26   1 9.528680000 6.652070000 13.532125000
    27   1 13.360130000 6.768550000 8.698265000
    28   1 10.611320000 6.315980000 8.132175000
    29   1 10.507730000 11.764300000 15.049825000
    30   1 14.109930000 11.137000000 12.068025000
    31   1 7.444660000 12.909100000 12.472025000
    32   1 9.486590000 10.551900000 9.174265000
    33   1 12.256530000 12.701900000 13.267225000
    34   1 8.424780000 7.789530000 9.134035000
    35   1 6.245980000 10.351500000 12.598325000
    36   1 9.014630000 13.265300000 5.497305000
    37   1 4.131270000 13.495100000 9.346405000
    38   1 11.402830000 11.655200000 6.533015000
    39   1 8.934630000 12.019300000 7.787355000
    40   1 10.269830000 15.506100000 9.513605000
    41   1 4.559490000 10.795170000 8.855875000
    42   1 4.958530000 8.012450000 8.665415000
    43   1 6.418250000 12.821100000 8.291575000
    44   1 8.922630000 8.007840000 6.343755000
    45   1 8.352330000 14.848700000 7.603495000
    46   1 10.991530000 14.207900000 7.264685000
    47   1 9.278530000 10.470440000 5.527795000
    48   1 6.127370000 14.738100000 10.923225000
    49   1 6.320630000 7.207030000 6.649685000
    50   1 4.823210000 9.598790000 6.406865000
    51   1 8.305230000 5.502490000 7.025525000
    52   1 7.090240000 9.873610000 7.817795000
    53   1 6.962960000 9.142600000 4.950175000
    54   1 6.266990000 14.252300000 5.969835000
    55   1 6.789160000 11.661400000 5.694865000
