/tmp/LAMMPS-w7vei1db/data.lammps (written by ASE) 

55 	 atoms 
1  atom types
4.481439999999999 15.51856  xlo xhi
4.784109999999998 15.215890000000002  ylo yhi
5.475940000000001 14.524059999999999  zlo zhi


Atoms 

     1   1 10.585560000 10.836290000 12.828760000
     2   1 8.102280000 7.642610000 6.426340000
     3   1 8.627020000 15.010790000 13.024360000
     4   1 9.983660000 9.259610000 5.475940000
     5   1 7.610140000 12.071690000 9.284060000
     6   1 4.481440000 9.282650000 11.997060000
     7   1 9.677960000 10.306900000 10.237800000
     8   1 12.362760000 11.569990000 10.744560000
     9   1 8.320040000 14.665290000 8.460980000
    10   1 5.557700000 11.258890000 7.716530000
    11   1 5.576500000 8.630050000 6.958990000
    12   1 11.137160000 13.750290000 12.514160000
    13   1 7.543280000 12.877790000 6.657020000
    14   1 13.656860000 12.957490000 12.491060000
    15   1 9.734860000 15.215890000 10.687560000
    16   1 10.315360000 12.953090000 9.454550000
    17   1 12.491760000 14.280190000 10.333730000
    18   1 8.750500000 12.580990000 11.774160000
    19   1 6.670240000 13.222390000 13.242460000
    20   1 7.441500000 10.255370000 6.001410000
    21   1 7.607900000 9.286340000 8.681060000
    22   1 7.000510000 14.447890000 10.830360000
    23   1 9.578360000 11.087590000 7.472490000
    24   1 12.173360000 12.220590000 14.524060000
    25   1 10.204460000 13.602590000 6.803740000
    26   1 12.239260000 10.316010000 8.416780000
    27   1 5.066820000 9.380670000 9.519820000
    28   1 5.326010000 12.084590000 10.810760000
    29   1 11.685660000 11.457390000 5.943540000
    30   1 12.522460000 12.933590000 8.009290000
    31   1 7.090090000 10.236360000 11.474560000
    32   1 11.871560000 10.058190000 14.201360000
    33   1 11.622760000 4.784110000 9.610760000
    34   1 13.100960000 6.556460000 8.052950000
    35   1 13.608760000 6.492230000 10.731160000
    36   1 14.597460000 8.676850000 7.017770000
    37   1 11.360560000 7.509640000 14.461360000
    38   1 13.796560000 7.685420000 13.465060000
    39   1 10.891860000 7.207830000 9.849060000
    40   1 14.949960000 11.164090000 10.481560000
    41   1 12.062160000 8.669160000 11.848260000
    42   1 7.145110000 8.583190000 12.868760000
    43   1 8.828060000 5.549340000 9.056800000
    44   1 11.843460000 5.836260000 12.448660000
    45   1 10.666660000 6.080480000 7.153360000
    46   1 14.183360000 10.447290000 12.955460000
    47   1 15.252560000 8.529440000 11.367360000
    48   1 13.454860000 9.073530000 9.359080000
    49   1 8.094360000 5.924130000 6.489910000
    50   1 11.657260000 8.700500000 7.042280000
    51   1 15.518560000 7.042480000 8.993090000
    52   1 9.650940000 4.904550000 11.406960000
    53   1 9.538000000 7.333980000 12.523360000
    54   1 9.297850000 9.313290000 14.495660000
    55   1 7.253860000 6.190400000 11.269160000
