/tmp/LAMMPS-k0q8a62o/data.lammps (written by ASE) 

55 	 atoms 
1  atom types
4.2463420988282135 15.753657901171787  xlo xhi
5.105649999999999 14.894350000000001  ylo yhi
4.597925 15.402075  zlo zhi


Atoms 

     1   1 9.865952099 5.688840000 12.209575000
     2   1 9.468852099 10.207040000 12.108275000
     3   1 10.645152099 10.633150000 14.379275000
     4   1 10.352652099 7.965320000 13.638875000
     5   1 10.355152099 8.029480000 10.702575000
     6   1 11.481652099 11.975050000 11.837275000
     7   1 12.276552099 6.689010000 12.287375000
     8   1 12.211052099 9.407620000 12.294675000
     9   1 11.463752099 13.076250000 9.444185000
    10   1 12.738452099 10.447050000 9.806555000
    11   1 13.125852099 7.846790000 10.067415000
    12   1 10.097052099 10.654450000 9.352565000
    13   1 7.990602099 7.580740000 12.202375000
    14   1 11.322752099 5.615390000 9.977245000
    15   1 9.462752099 12.908350000 13.421475000
    16   1 10.388752099 14.472550000 11.515675000
    17   1 8.658222099 12.601250000 10.474475000
    18   1 5.919952099 10.747750000 15.076075000
    19   1 6.359922099 13.354050000 14.369275000
    20   1 7.151212099 11.566750000 12.718275000
    21   1 5.012622099 13.887350000 12.054875000
    22   1 8.300462099 11.746250000 15.402075000
    23   1 8.117912099 9.338240000 14.371575000
    24   1 4.459132099 11.424350000 13.005175000
    25   1 5.819282099 9.040680000 12.884275000
    26   1 7.652962099 14.452550000 12.162875000
    27   1 9.263952099 14.894350000 9.240225000
    28   1 7.454122099 12.809350000 9.966125000
    29   1 4.679102099 9.694420000 10.910375000
    30   1 5.543152099 6.951430000 11.352775000
    31   1 4.640852099 12.154250000 9.996045000
    32   1 6.608632099 10.295380000 8.863005000
    33   1 8.061562099 14.561550000 8.229035000
    34   1 5.807172099 12.683750000 7.564935000
    35   1 5.440282099 14.670250000 9.136545000
    36   1 9.328352099 10.112250000 9.392965000
    37   1 7.934212099 5.836660000 11.062675000
    38   1 4.586332099 7.855910000 9.081265000
    39   1 5.679392099 8.225440000 6.807545000
    40   1 4.246342099 10.347280000 7.911895000
    41   1 8.379242099 11.945750000 7.204315000
    42   1 9.353852099 7.400250000 4.713345000
    43   1 7.521202099 6.328880000 6.449715000
    44   1 8.631582099 8.997960000 6.955505000
    45   1 5.976522099 5.541460000 8.918885000
    46   1 11.196652099 8.803430000 5.708195000
    47   1 7.458352099 7.600070000 8.925275000
    48   1 7.120932099 8.493660000 4.597925000
    49   1 10.851052099 10.941450000 7.133545000
    50   1 8.580862099 5.105650000 8.612975000
    51   1 10.129252099 6.709510000 7.207395000
    52   1 11.583552099 8.659890000 8.367595000
    53   1 9.108752099 10.355730000 4.867735000
    54   1 6.411052099 10.628650000 5.962875000
    55   1 15.753657901 6.656084362 10.074948245
