/var/folders/35/zn93tsdx7p13vbrdj0l0gn9r0000gn/T/LAMMPS-qdvzhe2k/data.lammps (written by ASE) 

55 	 atoms 
1  atom types
0.0 20.000000000  xlo xhi
0.0 20.000000000  ylo yhi
0.0 20.000000000  zlo zhi


Atoms 

     1   1 8.786786091 6.578501091 6.607279091
     2   1 9.934406091 9.302341091 5.497629091
     3   1 10.734326091 7.999231091 7.604839091
     4   1 12.590726091 9.088441091 5.727419091
     5   1 11.726026091 10.673241091 7.687479091
     6   1 13.230326091 6.959911091 7.460579091
     7   1 14.491826091 9.448141091 7.621459091
     8   1 9.037256091 11.428141091 6.771739091
     9   1 10.101636091 13.881841091 6.455619091
    10   1 12.334926091 13.411441091 7.517859091
    11   1 11.294526091 11.699641091 5.283439091
    12   1 13.776126091 11.530741091 6.088669091
    13   1 10.850126091 5.543291091 8.568659091
    14   1 13.056926091 5.821511091 9.950759091
    15   1 12.651326091 8.695121091 9.471429091
    16   1 15.068426091 7.446961091 9.382579091
    17   1 13.669926091 7.708401091 11.802219091
    18   1 14.924126091 9.931541091 10.388519091
    19   1 12.215226091 11.196141091 10.452419091
    20   1 10.135286091 12.514041091 9.080769091
    21   1 12.473926091 13.862141091 10.193289091
    22   1 14.208426091 11.963441091 8.733379091
    23   1 14.450026091 12.422041091 11.390519091
    24   1 10.200826091 15.028641091 9.037299091
    25   1 13.834026091 10.202441091 12.823919091
    26   1 7.450313909 5.990938909 6.710810909
    27   1 6.164723909 8.177848909 6.342720909
    28   1 7.601973909 10.355298909 6.478140909
    29   1 5.901543909 6.917318909 8.793600909
    30   1 6.609813909 6.257208909 11.490060909
    31   1 8.184013909 5.616148909 9.277700909
    32   1 9.006893909 4.971358909 11.627860909
    33   1 10.247813909 7.274638909 10.069960909
    34   1 5.759173909 9.580478909 8.613660909
    35   1 7.699273909 11.207398909 9.293930909
    36   1 4.931573909 8.297868909 10.896960909
    37   1 6.067023909 10.707998909 11.343660909
    38   1 7.600803909 8.507258909 10.522060909
    39   1 8.364313909 8.333658909 8.029500909
    40   1 11.411013909 11.504898909 11.723860909
    41   1 10.111013909 9.995198909 9.681590909
    42   1 9.688113909 12.924798909 9.944860909
    43   1 11.199413909 5.903068909 12.669560909
    44   1 8.893953909 7.400788909 12.744260909
    45   1 10.716513909 7.576448909 14.682260909
    46   1 6.501063909 8.649998909 13.089660909
    47   1 6.913703909 11.203398909 13.842760909
    48   1 11.418113909 8.735968909 12.069160909
    49   1 8.899643909 10.247398909 12.177160909
    50   1 8.653803909 9.380098909 14.716560909
    51   1 11.227513909 10.124998909 14.422260909
    52   1 7.925073909 12.729698909 11.879960909
    53   1 9.448813909 12.134898909 14.063860909
    54   1 10.523513909 13.944298909 12.339060909
    55   1 12.085113909 12.655198909 14.142860909
