/var/folders/35/zn93tsdx7p13vbrdj0l0gn9r0000gn/T/LAMMPS-pu4n41lj/data.lammps (written by ASE) 

55 	 atoms 
1  atom types
0.0 20.000000000  xlo xhi
0.0 20.000000000  ylo yhi
0.0 20.000000000  zlo zhi


Atoms 

     1   1 8.110942545 7.195220000 6.697142364
     2   1 8.178512545 4.923670000 8.196462364
     3   1 6.110082545 9.026750000 6.877292364
     4   1 5.892072545 11.267830000 8.224132364
     5   1 8.542722545 9.849680000 5.890702364
     6   1 6.781812545 11.888830000 5.884242364
     7   1 8.676612545 11.993030000 7.810032364
     8   1 9.273022545 12.331330000 5.077102364
     9   1 8.096012545 14.255230000 6.390882364
    10   1 6.132672545 7.295300000 11.811212364
    11   1 6.601762545 7.067500000 8.991572364
    12   1 9.482132545 7.145690000 9.200392364
    13   1 7.881412545 5.453810000 10.740312364
    14   1 5.735422545 9.373980000 10.040212364
    15   1 8.055862545 9.396120000 8.569852364
    16   1 8.390902545 8.532900000 11.352712364
    17   1 8.050022545 11.287930000 10.742812364
    18   1 7.837032545 14.107630000 10.933412364
    19   1 5.579482545 12.212030000 10.672912364
    20   1 6.735672545 13.728430000 8.592742364
    21   1 9.172152545 15.076330000 8.753952364
    22   1 7.803032545 5.807820000 13.317612364
    23   1 6.153562545 10.025730000 12.511112364
    24   1 7.665832545 8.234910000 14.047512364
    25   1 8.536362545 10.705830000 13.582412364
    26   1 6.748472545 12.628530000 12.920412364
    27   1 11.199717455 6.909818182 7.980987636
    28   1 11.232117455 8.125468182 5.732827636
    29   1 13.482017455 8.137028182 7.509807636
    30   1 12.305617455 10.363068182 6.536517636
    31   1 11.065717455 12.625268182 5.620937636
    32   1 10.082217455 14.446468182 7.318287636
    33   1 13.186417455 12.788668182 7.296547636
    34   1 10.220517455 7.772418182 10.545697636
    35   1 11.027017455 5.173648182 9.945247636
    36   1 12.989617455 7.139308182 10.119797636
    37   1 10.765117455 11.987168182 8.212117636
    38   1 10.604617455 11.326168182 10.836697636
    39   1 14.231417455 9.596998182 10.991097636
    40   1 14.420517455 10.502568182 8.273807636
    41   1 12.132617455 9.586058182 9.330127636
    42   1 9.616817455 13.921668182 9.954037636
    43   1 13.198017455 12.128468182 9.970167636
    44   1 11.585217455 13.662468182 11.692897636
    45   1 12.069717455 14.369968182 9.085687636
    46   1 9.519717455 7.286928182 13.512197636
    47   1 11.583217455 6.149008182 12.350597636
    48   1 13.927417455 7.309608182 12.577997636
    49   1 12.068417455 7.822688182 14.567897636
    50   1 9.804617455 9.556548182 14.902297636
    51   1 10.414117455 11.884168182 13.504397636
    52   1 12.218617455 10.489468182 14.922897636
    53   1 14.258817455 9.499058182 13.749797636
    54   1 11.804417455 9.168548182 12.355197636
    55   1 13.045717455 11.607768182 12.599197636
