ITEM: TIMESTEP
110
ITEM: NUMBER OF ATOMS
55
ITEM: BOX BOUNDS pp pp pp
0 20
0 20
0 20
ITEM: ATOMS id type x y z c_pea 
1 1 8.42304 6.06575 7.30452 -3.17322 
27 1 11.0217 6.44894 7.9334 -3.52531 
3 1 6.9825 8.24724 7.13575 -3.41749 
6 1 7.68496 10.1549 5.35245 -3.16722 
4 1 6.12059 10.9413 7.39164 -3.49308 
28 1 9.77947 8.31874 6.33091 -3.51731 
30 1 11.6182 10.6605 6.46438 -3.50764 
15 1 8.81906 10.2864 7.74661 -3.74819 
29 1 12.5261 8.17751 6.61391 -3.17206 
9 1 6.91164 12.8739 5.63182 -3.3018 
20 1 5.43767 13.5678 7.77447 -3.15058 
21 1 7.12806 15.417 7.3262 -3.09752 
5 1 9.50762 12.0354 5.66856 -3.43873 
8 1 8.96347 14.6271 5.82379 -3.14576 
31 1 11.2785 13.8287 6.72236 -3.30846 
33 1 13.3103 12.4748 7.56359 -3.17714 
10 1 6.27909 7.83317 11.8374 -3.34588 
11 1 6.80238 6.46841 9.46345 -3.27455 
13 1 8.41531 6.16884 11.7283 -3.52189 
2 1 9.43885 5.12685 9.61875 -3.3539 
12 1 8.87776 7.96012 9.19938 -3.79035 
34 1 10.9933 7.32514 10.7465 -3.79615 
35 1 12.1005 4.998 10.0364 -3.16922 
36 1 13.3447 7.22535 9.0445 -3.4252 
48 1 13.3509 6.5808 11.8569 -3.40901 
14 1 6.4651 9.3141 9.60226 -3.62414 
16 1 8.82459 8.92136 11.8678 -3.91194 
17 1 8.37291 11.2179 10.3087 -3.84336 
38 1 10.9844 10.985 11.2536 -3.85922 
41 1 11.3266 9.31296 8.85398 -3.90319 
39 1 13.441 9.18734 10.8222 -3.64414 
40 1 13.8211 9.91897 8.14376 -3.32654 
43 1 13.333 11.8313 10.0917 -3.50504 
18 1 7.16167 14.5642 9.84501 -3.33492 
19 1 5.84451 12.0886 9.89022 -3.43719 
26 1 7.18655 13.1076 11.9974 -3.18095 
7 1 8.12878 12.909 8.01689 -3.80127 
32 1 9.64361 15.0541 8.50965 -3.42003 
37 1 10.7666 12.0952 8.70361 -3.85082 
42 1 9.64489 13.588 10.8524 -3.61871 
44 1 12.0891 13.3184 11.9614 -3.22389 
45 1 12.0939 14.2316 9.41755 -3.30607 
22 1 7.09173 6.61114 13.9548 -2.86556 
46 1 9.63663 7.18026 13.9839 -3.49693 
47 1 10.9823 5.35292 12.486 -3.29816 
49 1 12.3189 6.94466 14.3584 -3.21853 
23 1 6.38536 10.5281 12.1318 -3.43944 
24 1 7.46854 9.11612 14.1569 -3.29544 
25 1 8.87227 11.402 13.1206 -3.57057 
50 1 9.96432 9.63763 14.9614 -3.30212 
51 1 11.3405 11.7259 14.0191 -3.30193 
54 1 11.54 8.94684 12.868 -3.72488 
52 1 12.6675 9.63895 15.1423 -3.15287 
53 1 14.2555 8.54178 13.3945 -3.16264 
55 1 13.5162 11.0639 12.7932 -3.41127 
