ITEM: TIMESTEP
340
ITEM: NUMBER OF ATOMS
55
ITEM: BOX BOUNDS ss ss ss
5.43017 14.168
6.05318 15.2342
4.12661 14.656
ITEM: ATOMS id type x y z c_pea 
1 1 7.50301 10.2881 4.75093 -3.17729 
26 1 7.15194 10.5296 7.40043 -3.54927 
29 1 9.15417 6.17365 8.05832 -3.33675 
6 1 8.18958 8.17995 6.34505 -3.45665 
34 1 9.67323 8.90527 4.14588 -3.24166 
47 1 7.67299 8.33604 9.00606 -3.62399 
5 1 10.2372 6.73731 5.69948 -3.15215 
9 1 13.2889 9.16547 8.00514 -3.49076 
33 1 10.4989 8.50524 8.21384 -3.91343 
48 1 11.9594 8.68409 5.70762 -3.47568 
25 1 9.85651 10.4349 6.36809 -3.84773 
10 1 12.0808 6.52065 7.55523 -3.27044 
15 1 9.06992 10.7827 9.36655 -4.00778 
3 1 7.00031 12.6428 5.89634 -3.03274 
44 1 9.17503 12.8932 7.32284 -3.71078 
46 1 8.65054 14.9351 8.95915 -3.27883 
51 1 6.78958 12.9081 8.73014 -3.52234 
11 1 9.19187 12.2256 4.46396 -3.23762 
4 1 13.6373 13.3178 7.33694 -3.17233 
18 1 11.4649 12.9841 5.70779 -3.4255 
24 1 14.1248 11.3762 9.25012 -3.3996 
42 1 11.6529 11.6133 8.15701 -3.87729 
45 1 13.3121 11.0237 6.08063 -3.31399 
49 1 11.2991 14.5625 7.88861 -3.30159 
54 1 11.4594 10.8384 4.12773 -3.19238 
35 1 8.11119 6.11512 10.5906 -3.32126 
27 1 7.72318 7.30539 13.0334 -3.3117 
50 1 6.1735 8.08899 11.1639 -3.23932 
7 1 7.99502 10.0219 12.0769 -3.78235 
21 1 9.66662 8.27381 10.9333 -3.81588 
37 1 5.43117 10.1392 12.7124 -3.21 
38 1 7.33889 9.40932 14.572 -3.17281 
39 1 6.22002 10.5888 10.0515 -3.56554 
17 1 11.8252 9.87873 10.327 -3.83711 
14 1 10.9177 6.0542 10.0169 -3.43621 
30 1 9.98519 6.05831 12.5456 -3.16312 
13 1 13.2172 7.36757 9.82811 -3.25593 
16 1 12.1197 7.6182 12.1554 -3.42431 
19 1 12.3526 9.9512 13.3501 -3.37899 
36 1 9.98864 8.62258 13.675 -3.54138 
12 1 14.167 9.44397 11.2656 -3.20093 
31 1 6.51546 14.9165 10.5028 -3.16015 
43 1 5.43248 12.6519 11.6243 -3.29128 
2 1 9.50079 11.0233 14.6549 -3.36661 
23 1 7.04336 11.9989 13.8175 -3.47569 
32 1 6.90191 14.5313 13.012 -3.15407 
41 1 9.09338 15.2332 11.5504 -3.33074 
53 1 8.0219 12.7221 11.2047 -3.82425 
28 1 9.35082 13.5374 13.6414 -3.47797 
40 1 10.4393 13.2035 10.0318 -3.71557 
8 1 13.1167 11.9747 11.7417 -3.51823 
20 1 13.0394 13.8188 9.82873 -3.29546 
22 1 10.3812 11.3766 12.1171 -3.84556 
52 1 11.7931 12.414 14.1852 -3.1628 
55 1 11.5694 14.1697 12.2257 -3.31015 
