ITEM: TIMESTEP
36
ITEM: NUMBER OF ATOMS
5
ITEM: BOX BOUNDS pp pp pp
0 10
0 10
0 10
ITEM: ATOMS id type x y z c_pea 
4 1 3.39109 4.73204 4.75514 -2.76121 
3 1 5.16626 5.04015 3.08821 -2.57482 
1 1 4.55529 4.86719 6.91179 -2.57482 
5 1 5.79443 3.77544 5.09591 -2.76121 
2 1 5.39682 6.35347 5.14894 -2.76121 
