/var/folders/35/zn93tsdx7p13vbrdj0l0gn9r0000gn/T/LAMMPS-7j0_ov9_/data.lammps (written by ASE) 

5 	 atoms 
1  atom types
0.0 10.000000000  xlo xhi
0.0 10.000000000  ylo yhi
0.0 10.000000000  zlo zhi


Atoms 

     1   1 3.500421877 4.494868510 6.223563474
     2   1 4.181887495 3.902789149 3.941070591
     3   1 4.983743339 6.097210851 5.102377548
     4   1 6.499578123 4.694019642 3.776436526
     5   1 4.181887495 3.902789149 3.941070591
