ITEM: TIMESTEP
2
ITEM: NUMBER OF ATOMS
5
ITEM: BOX BOUNDS pp pp pp
0 10
0 10
0 10
ITEM: ATOMS id type x y z c_pea 
2 1 nan nan nan 0 
5 1 nan nan nan 0 
4 1 6.49957 4.69402 3.77644 -1.61582 
1 1 3.50043 4.49487 6.22355 -1.61583 
3 1 4.98374 6.0972 5.10237 -2.17906 
