ITEM: TIMESTEP
70
ITEM: NUMBER OF ATOMS
55
ITEM: BOX BOUNDS pp pp pp
0 20
0 20
0 20
ITEM: ATOMS id type x y z c_pea 
44 1 6.74961 6.60861 7.93558 -3.35692 
29 1 8.54571 7.30521 6.19145 -3.42465 
30 1 8.54614 4.81153 7.37841 -3.15028 
31 1 10.8036 5.75258 6.53329 -3.14981 
32 1 6.35466 9.14469 6.327 -3.2753 
38 1 6.88528 11.8838 5.99469 -3.29599 
34 1 11.0198 8.349 6.74259 -3.50765 
35 1 8.89518 9.94453 5.87749 -3.52953 
36 1 11.36 11.0691 6.2959 -3.43997 
37 1 13.1153 9.41087 7.93198 -3.42478 
39 1 8.89207 12.0274 7.69421 -3.77219 
40 1 9.39353 12.4373 5.0083 -3.15544 
41 1 8.20024 14.2907 6.36824 -3.15909 
42 1 10.8919 13.7128 6.91524 -3.42442 
25 1 6.95986 7.35494 10.4539 -3.53845 
18 1 10.8411 5.81962 10.9946 -3.42709 
26 1 8.33429 5.08662 10.0243 -3.29895 
45 1 9.6199 7.09686 8.82547 -3.96502 
46 1 10.717 4.4495 8.78784 -3.16392 
47 1 12.4821 6.52512 8.53142 -3.51275 
15 1 13.3139 6.39414 11.3642 -3.10338 
33 1 5.87048 11.1417 8.3486 -3.52547 
23 1 5.85106 9.79235 10.7647 -3.47601 
28 1 7.97806 11.4313 10.2394 -3.82934 
48 1 5.13298 8.54483 8.57977 -3.14962 
49 1 7.87886 9.21218 8.46869 -3.91292 
16 1 11.4778 10.7226 11.659 -3.90826 
19 1 9.10582 9.06598 11.1594 -3.93986 
24 1 11.8263 8.37439 10.2751 -3.7347 
50 1 10.5473 10.1609 8.78198 -3.88288 
27 1 13.8463 10.5946 10.2448 -3.48983 
51 1 14.4888 8.02326 9.77556 -3.15042 
22 1 5.74617 12.645 10.899 -3.29396 
52 1 6.86542 13.6204 8.59891 -3.42967 
17 1 10.6965 14.7597 11.588 -3.38693 
20 1 8.10573 14.1848 11.0281 -3.53507 
53 1 10.4423 12.7167 9.92186 -3.79625 
54 1 9.30987 14.9109 8.75001 -3.39893 
55 1 11.9621 14.7982 9.13053 -3.16049 
21 1 12.9966 13.1523 10.9464 -3.44114 
43 1 12.6388 12.1638 8.38574 -3.50502 
8 1 11.13 7.93026 12.8764 -3.54514 
14 1 8.77868 6.6266 12.3415 -3.26144 
10 1 7.05988 8.46637 12.9296 -3.18758 
11 1 6.81272 11.0513 12.8912 -3.46797 
1 1 10.3966 11.9731 15.2112 -3.14897 
5 1 9.27939 9.77319 13.8645 -3.57747 
3 1 12.0214 10.1863 14.2006 -3.33038 
9 1 13.9268 11.4535 12.8225 -3.16941 
13 1 13.6612 8.84927 12.3524 -3.43045 
2 1 7.92639 12.1284 15.0154 -3.11939 
7 1 6.8548 13.6825 13.2182 -3.15894 
12 1 9.31942 12.1542 12.5492 -3.79567 
4 1 9.36598 14.2928 13.9706 -3.23731 
6 1 11.8424 13.0429 13.3605 -3.45002 
