/var/folders/35/zn93tsdx7p13vbrdj0l0gn9r0000gn/T/LAMMPS-9hwf95bw/data.lammps (written by ASE) 

55 	 atoms 
1  atom types
0.0 20.000000000  xlo xhi
0.0 20.000000000  ylo yhi
0.0 20.000000000  zlo zhi


Atoms 

     1   1 8.716763000 11.473063182 15.303341818
     2   1 8.895293000 8.786503182 15.047841818
     3   1 11.188443000 12.645463182 14.973141818
     4   1 11.087543000 10.015313182 14.498241818
     5   1 9.046913000 13.995963182 14.352641818
     6   1 10.586543000 7.243103182 13.718941818
     7   1 7.316083000 10.040283182 13.378241818
     8   1 7.025863000 12.682063182 13.104041818
     9   1 7.937203000 7.235913182 13.077241818
    10   1 9.661673000 11.774263182 12.883941818
    11   1 11.268943000 14.186763182 12.712841818
    12   1 12.453343000 11.789263182 12.675441818
    13   1 12.423643000 9.090823182 12.370641818
    14   1 9.642043000 9.153693182 12.134341818
    15   1 9.272213000 5.305573182 11.806341818
    16   1 5.509103000 11.054263182 11.674941818
    17   1 8.682043000 14.165963182 11.664441818
    18   1 11.596143000 6.706733182 11.344441818
    19   1 6.739633000 6.096533182 10.999241818
    20   1 6.895883000 8.738973182 10.971241818
    21   1 8.137393000 11.258663182 10.598541818
    22   1 10.750443000 12.482463182 10.491541818
    23   1 13.596243000 10.845863182 10.482141818
    24   1 13.014643000 13.574163182 10.402641818
    25   1 13.801443000 8.000423182 10.329241818
    26   1 6.380003000 13.133563182 10.318041818
    27   1 10.835143000 15.205263182 10.304341818
    28   1 9.167333000 7.329033182 10.124741818
    29   1 8.449507000 7.166006818 6.316698182
    30   1 8.517077000 4.894456818 7.816018182
    31   1 10.692697000 5.588396818 6.671368182
    32   1 6.448647000 8.997536818 6.496848182
    33   1 6.230637000 11.238616818 7.843688182
    34   1 10.937497000 8.309796818 6.601508182
    35   1 8.881287000 9.820466818 5.510258182
    36   1 11.408797000 10.935316818 6.114268182
    37   1 13.225397000 9.322886818 7.701548182
    38   1 7.120377000 11.859616818 5.503798182
    39   1 9.015177000 11.963816818 7.429588182
    40   1 9.611587000 12.302116818 4.696658182
    41   1 8.434577000 14.226016818 6.010438182
    42   1 11.051697000 13.629916818 6.616818182
    43   1 12.865597000 12.138116818 8.074028182
    44   1 6.940327000 7.038286818 8.611128182
    45   1 9.820697000 7.116476818 8.819948182
    46   1 10.909897000 4.794736818 9.317158182
    47   1 12.612197000 6.645006818 8.164478182
    48   1 6.073987000 9.344766818 9.659768182
    49   1 8.394427000 9.366906818 8.189408182
    50   1 10.905797000 10.244916818 8.736898182
    51   1 14.490897000 7.904416818 9.620748182
    52   1 7.074237000 13.699216818 8.212298182
    53   1 10.538697000 12.876816818 9.519978182
    54   1 9.510717000 15.047116818 8.373508182
    55   1 12.251597000 14.793316818 8.690148182
