/tmp/LAMMPS-cj2f0nrh/data.lammps (written by ASE) 

55 	 atoms 
1  atom types
4.772943766091144 15.227056233908856  xlo xhi
5.08077 14.919229999999999  ylo yhi
4.576558411272929 15.423441588727071  zlo zhi


Atoms 

     1   1 9.020866234 10.557930000 7.887401589
     2   1 9.899756234 12.869230000 8.933981589
     3   1 12.053256234 7.816940000 9.868771589
     4   1 11.663356234 10.587730000 9.598481589
     5   1 13.419556234 9.187610000 7.766971589
     6   1 10.140756234 6.248330000 8.172841589
     7   1 11.628456234 11.450430000 7.209041589
     8   1 14.444456234 6.893360000 9.646491589
     9   1 10.824656234 8.719040000 7.315511589
    10   1 7.220596234 12.262330000 9.149731589
    11   1 9.449956234 8.433220000 9.755021589
    12   1 15.227056234 10.370030000 12.683741589
    13   1 13.867056234 12.074630000 11.094941589
    14   1 14.023356234 11.622630000 8.428661589
    15   1 10.645056234 14.919230000 10.638051589
    16   1 12.416556234 13.447930000 9.377061589
    17   1 14.610456234 9.539710000 10.136701589
    18   1 14.591356234 7.839090000 12.368241589
    19   1 12.429956234 5.080770000 9.341811589
    20   1 7.957176234 7.880610000 7.676461589
    21   1 12.721456234 6.703930000 7.418231589
    22   1 7.036946234 13.572530000 11.591841589
    23   1 7.487306234 7.225220000 13.815241589
    24   1 8.655116234 13.896630000 13.666541589
    25   1 5.517686234 11.162630000 11.363541589
    26   1 8.934266234 12.102430000 15.423441589
    27   1 10.030956234 7.706290000 14.334241589
    28   1 9.250016234 5.310250000 12.741141589
    29   1 9.458456234 11.306630000 12.765041589
    30   1 6.902736234 6.462060000 11.507141589
    31   1 11.226456234 12.963130000 14.050441589
    32   1 11.942256234 6.489630000 12.936941589
    33   1 9.892456234 13.626330000 11.337341589
    34   1 7.707186234 9.353320000 11.900041589
    35   1 9.644256234 7.478160000 11.547641589
    36   1 8.136926234 9.646220000 14.709941589
    37   1 10.821256234 10.304900000 15.080341589
    38   1 12.640756234 8.284000000 14.789241589
    39   1 11.491856234 9.387940000 12.545441589
    40   1 13.277356234 10.797030000 14.058141589
    41   1 14.059056234 8.513890000 12.526941589
    42   1 5.364496234 8.531250000 10.863441589
    43   1 6.876146234 11.750530000 13.589141589
    44   1 13.851756234 13.250430000 13.463841589
    45   1 6.150136234 10.183500000 8.875791589
    46   1 7.720056234 7.998410000 9.429511589
    47   1 5.814766234 12.942030000 9.265071589
    48   1 8.034006234 11.526330000 10.193501589
    49   1 5.651416234 9.244170000 13.449041589
    50   1 8.708216234 5.464950000 9.929031589
    51   1 13.532235391 11.575867037 7.635301543
    52   1 13.826844111 5.889041551 8.660138638
    53   1 4.772943766 12.968322840 15.143721911
    54   1 11.266091743 7.927541306 4.576558411
    55   1 12.543031647 12.502451144 4.683174742
