ITEM: TIMESTEP
204
ITEM: NUMBER OF ATOMS
55
ITEM: BOX BOUNDS ss ss ss
4.37727 14.776
5.12114 15.3215
5.43221 14.3553
ITEM: ATOMS id type x y z c_pea 
36 1 9.40498 8.76742 5.72873 -3.25264 
38 1 5.69473 7.12815 7.38889 -3.14654 
43 1 8.49662 7.13196 7.69395 -3.60747 
48 1 9.53242 5.12222 9.182 -3.31245 
49 1 7.13214 9.42295 7.21695 -3.51662 
51 1 6.84285 5.2312 8.63118 -3.12523 
55 1 4.71798 9.22468 8.51816 -3.21808 
52 1 6.87981 8.1286 9.7612 -3.82374 
27 1 13.2608 8.02875 8.09724 -3.4335 
34 1 12.016 8.40232 5.79456 -3.15828 
39 1 10.6231 9.06491 8.08969 -3.85313 
40 1 11.1101 6.49695 7.50737 -3.32374 
46 1 8.55003 10.3584 9.552 -3.93629 
31 1 8.98808 13.0771 9.00476 -3.66701 
33 1 9.16474 11.2551 6.97929 -3.5312 
44 1 6.68823 11.9009 7.99905 -3.26319 
28 1 12.9141 10.6473 7.31902 -3.47618 
29 1 11.155 10.8123 5.43319 -3.09797 
32 1 11.2607 14.4963 9.55813 -3.39614 
35 1 11.3315 12.8974 7.29045 -3.32019 
2 1 11.2509 11.324 9.43635 -3.82762 
4 1 14.3637 10.2909 9.51724 -3.39859 
7 1 13.3973 12.8235 9.1715 -3.3239 
41 1 7.50585 5.72399 11.0454 -3.45787 
45 1 4.85108 6.55589 9.93367 -3.25234 
10 1 7.76164 9.26886 12.129 -3.7225 
11 1 8.55891 6.95412 13.1583 -3.33737 
47 1 4.37834 8.91741 11.1528 -3.20035 
50 1 5.91521 7.36717 12.4226 -3.25219 
3 1 14.7715 7.57807 10.1146 -3.11037 
9 1 11.1423 7.31095 12.6938 -3.49255 
15 1 12.3433 8.8747 10.5964 -3.8702 
16 1 10.0713 5.15356 11.6993 -3.16236 
22 1 12.0664 6.25164 10.0874 -3.55926 
23 1 14.7749 9.4214 12.0013 -3.16282 
24 1 13.6761 7.06311 12.3326 -3.13877 
25 1 9.96081 9.04662 14.3544 -3.26444 
26 1 12.5653 9.4382 13.5095 -3.43253 
37 1 9.59987 7.62038 10.38 -3.99314 
12 1 10.2864 10.0918 11.9052 -3.86424 
5 1 8.78517 14.9481 10.9223 -3.3975 
13 1 8.4319 11.1269 14.108 -3.43258 
14 1 9.01122 13.8188 13.6108 -3.43528 
17 1 7.79671 12.2112 11.6937 -3.92378 
18 1 5.66544 10.4743 13.0596 -3.35772 
19 1 6.45609 12.8243 14.1469 -3.15409 
21 1 6.70184 14.7474 12.4478 -3.16285 
30 1 4.98693 12.7964 11.9598 -3.17995 
42 1 5.86991 10.8871 10.2755 -3.63309 
54 1 6.4546 13.7455 9.9237 -3.31965 
6 1 10.9255 15.3204 12.3269 -2.98974 
1 1 12.9795 11.4478 11.7082 -3.6523 
8 1 10.5086 12.8392 11.5622 -3.69076 
20 1 11.0601 11.7084 13.9382 -3.32678 
53 1 12.9853 14.0689 11.489 -3.04755 
