/var/folders/35/zn93tsdx7p13vbrdj0l0gn9r0000gn/T/LAMMPS-qjpmd6lr/data.lammps (written by ASE) 

5 	 atoms 
1  atom types
0.0 10.000000000  xlo xhi
0.0 10.000000000  ylo yhi
0.0 10.000000000  zlo zhi


Atoms 

     1   1 6.593997310 4.289448224 3.513071165
     2   1 3.406002690 6.103896769 6.486928835
     3   1 5.807018032 3.761082131 4.728579263
     4   1 6.482687491 6.238917869 6.372842162
     5   1 5.205000556 5.215820528 5.648381086
