ITEM: TIMESTEP
148
ITEM: NUMBER OF ATOMS
55
ITEM: BOX BOUNDS ss ss ss
5.01445 15.0101
4.72075 14.6438
5.44896 14.8049
ITEM: ATOMS id type x y z c_pea 
29 1 6.21426 7.07845 8.04942 -3.25379 
32 1 6.07122 9.42607 6.99154 -3.28725 
34 1 8.16865 5.56891 9.20701 -3.43713 
40 1 8.67452 8.24772 8.00758 -3.8879 
43 1 5.01553 9.18338 9.39167 -3.18158 
45 1 8.14167 8.58275 5.44987 -3.21819 
50 1 8.18213 6.11744 6.48567 -3.19371 
11 1 14.223 8.19565 8.32295 -3.53921 
28 1 12.7326 6.18201 9.39842 -3.52479 
46 1 10.5071 7.28124 5.62694 -3.38358 
47 1 10.4905 5.62768 7.83011 -3.52885 
51 1 13.1013 8.95668 5.86922 -3.41246 
53 1 11.445 8.24683 7.97126 -3.73972 
55 1 12.8765 6.40094 6.67561 -3.15784 
31 1 7.45205 10.232 9.44879 -3.67007 
33 1 5.68177 11.7114 8.42836 -3.10902 
36 1 8.16868 12.8808 8.67431 -3.54586 
48 1 8.14829 10.9835 6.79658 -3.51675 
18 1 15.0091 10.5409 7.06159 -3.15699 
1 1 10.6747 13.8158 9.32847 -3.54651 
6 1 10.1162 10.6388 8.96277 -3.95101 
12 1 12.7733 13.525 7.73166 -3.27248 
15 1 12.8453 11.6653 5.71895 -3.16774 
22 1 14.8148 12.5916 8.83702 -3.27389 
44 1 10.5554 9.97965 6.0076 -3.60853 
49 1 10.4713 12.4895 6.94411 -3.43694 
52 1 12.6773 10.7286 8.11272 -3.73097 
13 1 14.8389 10.2055 9.96374 -3.53751 
30 1 8.93677 9.37434 11.5159 -3.75273 
38 1 6.99154 7.61654 10.5902 -3.62839 
39 1 7.57422 8.22259 13.375 -3.26687 
42 1 8.59262 5.95192 11.9589 -3.26096 
3 1 12.3008 8.95545 10.5226 -3.8824 
5 1 12.7846 8.29961 13.4838 -3.3243 
8 1 14.3879 7.71627 11.2195 -3.24187 
16 1 12.1223 6.25867 11.9193 -3.33772 
21 1 10.2344 7.59765 13.197 -3.46447 
37 1 10.4996 4.72181 10.4136 -3.1628 
54 1 10.1035 7.30166 10.2329 -3.79551 
10 1 9.68794 9.74022 14.6147 -3.29991 
41 1 6.05008 9.88871 11.7863 -3.33945 
7 1 7.82078 11.1323 13.3393 -3.48791 
17 1 9.41067 12.1165 11.1999 -3.84324 
20 1 8.44433 14.6427 10.6512 -3.14481 
27 1 8.20947 13.7648 13.0148 -3.1432 
35 1 6.70732 12.4436 11.0103 -3.47641 
19 1 13.1697 14.3501 10.4253 -3.24525 
23 1 11.2093 10.3937 12.5107 -3.67745 
2 1 14.0349 10.3481 12.5266 -3.50632 
4 1 12.381 11.9003 10.5094 -3.87755 
9 1 10.2411 12.3975 14.0545 -3.44488 
14 1 10.8457 14.2385 12.0206 -3.42464 
24 1 12.3181 10.6665 14.804 -3.13507 
25 1 14.9083 12.6145 11.4405 -3.16603 
26 1 12.7952 12.7667 13.0868 -3.43169 
