/var/folders/35/zn93tsdx7p13vbrdj0l0gn9r0000gn/T/LAMMPS-mvfg_hhw/data.lammps (written by ASE) 

55 	 atoms 
1  atom types
0.0 20.000000000  xlo xhi
0.0 20.000000000  ylo yhi
0.0 20.000000000  zlo zhi


Atoms 

     1   1 5.317069818 7.088669909 8.697202273
     2   1 5.943149818 7.065359909 11.286822273
     3   1 6.851869818 5.157399909 9.387492273
     4   1 8.296849818 5.590989909 11.519222273
     5   1 9.546199818 5.546699909 8.997732273
     6   1 11.038289818 5.944709909 11.180222273
     7   1 12.284789818 6.405749909 8.666902273
     8   1 13.346989818 7.216379909 11.102522273
     9   1 7.992849818 7.677319909 9.747592273
    10   1 10.716589818 8.263599909 9.655882273
    11   1 14.913189818 9.361119909 11.350622273
    12   1 12.271689818 9.618759909 11.791022273
    13   1 7.475799818 7.171239909 13.545222273
    14   1 9.872069818 5.597359909 13.576322273
    15   1 9.653909818 7.543639909 15.109822273
    16   1 11.989189818 7.303289909 13.459022273
    17   1 6.994219818 9.502239909 12.027322273
    18   1 8.315989818 9.701759909 14.345222273
    19   1 9.610669818 8.162169909 12.267622273
    20   1 11.137889818 9.616889909 14.569522273
    21   1 10.012699818 10.978859909 12.385922273
    22   1 13.780189818 9.410419909 13.856622273
    23   1 14.220689818 11.632659909 12.452222273
    24   1 7.671049818 12.057159909 13.005222273
    25   1 9.623449818 11.913359909 14.956122273
    26   1 10.085489818 13.645559909 13.090722273
    27   1 12.132589818 11.970459909 13.894222273
    28   1 10.883000182 7.496960091 5.249067727
    29   1 8.249620182 6.770100091 6.364967727
    30   1 10.484200182 5.224910091 6.489797727
    31   1 10.404700182 7.615860091 7.923767727
    32   1 12.720900182 6.602000091 6.935287727
    33   1 7.454170182 11.499000091 5.686097727
    34   1 6.373200182 8.927780091 6.362707727
    35   1 8.936020182 9.189940091 5.625907727
    36   1 9.325450182 11.128100091 7.488767727
    37   1 11.638800182 9.790900091 6.638107727
    38   1 10.164900182 11.398200091 4.890177727
    39   1 9.195500182 13.570900091 5.999117727
    40   1 11.576400182 12.748700091 6.747327727
    41   1 6.334210182 11.150400091 8.111727727
    42   1 5.086810182 8.840300091 8.679157727
    43   1 7.897590182 8.894380091 8.497347727
    44   1 8.372670182 11.077500091 10.244077727
    45   1 10.815500182 9.839100091 9.477837727
    46   1 13.039600182 11.369200091 8.526097727
    47   1 13.312700182 8.608470091 8.551147727
    48   1 6.220390182 12.913000091 10.247477727
    49   1 7.908710182 13.356900091 8.251417727
    50   1 10.669400182 12.570000091 9.379527727
    51   1 8.664560182 13.956300091 10.802977727
    52   1 11.184800182 14.723400091 10.988677727
    53   1 10.181600182 14.842600091 8.246807727
    54   1 13.068900182 12.706600091 10.970977727
    55   1 12.724800182 14.168500091 8.755087727
