ITEM: TIMESTEP
30
ITEM: NUMBER OF ATOMS
5
ITEM: BOX BOUNDS pp pp pp
0 10
0 10
0 10
ITEM: ATOMS id type x y z c_pea 
1 1 4.46864 4.24489 3.88339 -2.7612 
4 1 6.90844 4.37394 4.11909 -2.57482 
5 1 5.66858 3.78359 6.15364 -2.76123 
2 1 3.60784 5.10979 6.01307 -2.57482 
3 1 5.63728 6.19647 5.16156 -2.76119 
