/var/folders/35/zn93tsdx7p13vbrdj0l0gn9r0000gn/T/LAMMPS-rqpta9g9/data.lammps (written by ASE) 

5 	 atoms 
1  atom types
0.0 10.000000000  xlo xhi
0.0 10.000000000  ylo yhi
0.0 10.000000000  zlo zhi


Atoms 

     1   1 6.039774415 4.140524556 3.702287000
     2   1 3.863606071 3.791720821 4.782617000
     3   1 5.898992394 4.807730529 6.060197000
     4   1 6.136393929 5.673971440 4.911933000
     5   1 4.182293101 6.208279179 6.297713000
