ITEM: TIMESTEP
192
ITEM: NUMBER OF ATOMS
55
ITEM: BOX BOUNDS pp pp pp
0 20
0 20
0 20
ITEM: ATOMS id type x y z c_pea 
28 1 11.203 6.77827 7.22142 -3.47304 
30 1 6.60616 8.02141 7.62579 -3.3732 
31 1 7.14692 10.5314 6.54926 -3.27574 
32 1 9.11235 8.4097 6.47375 -3.49376 
33 1 11.6483 8.80685 5.4719 -3.16317 
35 1 10.1288 10.9797 6.07933 -3.49925 
29 1 13.6432 8.06683 7.2241 -3.46483 
36 1 13.2598 10.7026 6.53177 -3.30941 
39 1 11.8854 12.9813 6.7232 -3.24092 
40 1 8.46918 12.8488 7.0202 -3.47196 
53 1 10.0706 14.7961 7.78243 -3.19922 
41 1 5.08568 7.83761 10.0115 -3.17748 
42 1 6.58891 5.77468 9.79472 -3.09271 
27 1 8.62359 6.24611 8.12317 -3.43989 
18 1 8.88723 5.77857 11.1948 -3.55424 
25 1 10.5175 7.5739 9.77266 -3.92377 
44 1 10.5957 4.90856 9.22322 -3.17168 
15 1 11.6962 5.59434 11.5764 -3.48215 
45 1 12.9869 6.17411 9.22507 -3.48977 
46 1 15.3854 7.40642 9.24533 -3.15515 
13 1 14.1984 6.86971 11.6791 -3.45592 
23 1 5.09358 9.82913 11.75 -3.29338 
49 1 7.79156 8.09371 10.0004 -3.6434 
47 1 5.96884 10.2324 9.12197 -3.63752 
20 1 7.6738 10.3413 11.5473 -3.77914 
34 1 8.74114 10.0955 8.51901 -3.79205 
24 1 10.5837 10.3908 10.8187 -3.9871 
48 1 11.3736 9.58 8.01571 -3.78398 
43 1 13.1477 8.85356 9.87804 -3.73536 
26 1 15.4853 9.15863 11.2215 -3.18725 
37 1 13.1766 11.6995 9.06839 -3.62091 
50 1 15.1296 9.95738 8.52306 -3.21663 
16 1 13.5377 10.861 11.6694 -3.43767 
19 1 5.55237 12.3638 10.806 -3.33986 
38 1 6.0544 12.6601 8.0711 -3.20179 
22 1 7.33834 14.2042 11.6072 -3.18613 
51 1 7.58899 14.7487 8.89201 -3.20951 
17 1 11.8124 12.8559 11.3116 -3.4499 
21 1 9.82511 14.504 10.4438 -3.45792 
52 1 10.5395 12.2667 8.80368 -3.72159 
54 1 8.06972 12.3701 9.85353 -3.66516 
55 1 12.2863 14.3054 9.08531 -3.15339 
11 1 6.61944 7.3588 12.2953 -3.49655 
6 1 10.1418 6.13463 13.6785 -3.29962 
2 1 8.27251 7.74717 14.7473 -3.14024 
3 1 12.7596 6.57028 13.9916 -3.15749 
8 1 6.48259 9.47213 13.9425 -3.24159 
1 1 10.9479 8.50725 14.7217 -3.39787 
5 1 8.93097 10.4258 14.1719 -3.46941 
7 1 11.4866 10.8059 13.3782 -3.47717 
12 1 9.22588 8.32386 12.4081 -3.73834 
14 1 11.8652 8.27615 12.1655 -3.65252 
4 1 13.9031 8.98477 13.5525 -3.23454 
9 1 6.71341 12.0952 13.2134 -3.28413 
10 1 9.3517 12.4879 12.3959 -3.60752 
