/tmp/LAMMPS-z9493dib/data.lammps (written by ASE) 

55 	 atoms 
1  atom types
3.925145 16.074855  xlo xhi
5.3073749999999995 14.692625  ylo yhi
5.113775 14.886225  zlo zhi


Atoms 

     1   1 10.660155000 11.376625000 10.310825000
     2   1 15.003055000 7.972565000 11.037825000
     3   1 9.771155000 11.890525000 12.919525000
     4   1 13.916355000 13.642725000 10.835825000
     5   1 11.434655000 13.908125000 12.055425000
     6   1 13.885455000 9.460525000 13.269825000
     7   1 12.942855000 9.270955000 10.459325000
     8   1 15.164655000 10.893625000 11.367725000
     9   1 9.133185000 13.841825000 10.816625000
    10   1 12.753155000 11.709525000 12.184725000
    11   1 8.579965000 9.024875000 11.802725000
    12   1 11.966655000 8.410665000 14.886225000
    13   1 5.740735000 9.427325000 12.187625000
    14   1 12.759555000 7.166125000 12.562625000
    15   1 7.348025000 10.861725000 13.688925000
    16   1 7.360315000 7.862805000 13.753025000
    17   1 9.450635000 9.541225000 14.625225000
    18   1 7.710485000 11.311825000 10.839325000
    19   1 10.033195000 7.122955000 13.519225000
    20   1 11.152755000 9.458625000 12.486425000
    21   1 11.798755000 10.988825000 14.602125000
    22   1 5.360525000 12.124125000 12.186925000
    23   1 11.007255000 5.307375000 11.830125000
    24   1 10.575255000 7.669765000 10.329825000
    25   1 8.419845000 6.292465000 11.510025000
    26   1 3.925145000 8.532065000 10.501025000
    27   1 5.774425000 6.770625000 11.690925000
    28   1 7.467505000 13.401725000 12.709225000
    29   1 14.788155000 13.667725000 10.123925000
    30   1 10.869645000 12.382125000 9.281645000
    31   1 12.252255000 14.692625000 9.486965000
    32   1 13.501255000 12.903325000 7.914275000
    33   1 8.567375000 12.673925000 7.712145000
    34   1 9.141775000 14.346325000 9.627605000
    35   1 9.120365000 10.114415000 8.398825000
    36   1 10.007855000 11.379125000 5.937355000
    37   1 10.958925000 13.739925000 7.080425000
    38   1 12.361155000 5.567695000 7.660755000
    39   1 11.117945000 7.844155000 8.343145000
    40   1 9.668355000 6.014675000 6.975945000
    41   1 11.868105000 10.421825000 7.595695000
    42   1 13.536555000 8.091295000 6.952425000
    43   1 8.574955000 7.404985000 9.008825000
    44   1 11.589965000 6.988345000 5.525835000
    45   1 12.520355000 12.168325000 5.542755000
    46   1 10.242615000 5.317805000 9.503975000
    47   1 14.838155000 6.247225000 8.514075000
    48   1 12.081155000 9.580155000 5.113775000
    49   1 9.693065000 8.677935000 6.206595000
    50   1 14.478655000 10.666925000 6.735965000
    51   1 12.880155000 5.357105000 10.284925000
    52   1 13.409955000 8.021705000 9.879995000
    53   1 15.676155000 8.867525000 8.350115000
    54   1 13.788455000 10.735725000 9.571885000
    55   1 16.074855000 11.541225000 8.953095000
