/tmp/LAMMPS-5ftb15pn/data.lammps (written by ASE) 

55 	 atoms 
1  atom types
5.039776156227713 14.960223843772287  xlo xhi
4.400161160285107 15.599838839714893  ylo yhi
4.805121701918883 15.194878298081118  zlo zhi


Atoms 

     1   1 10.828293372 12.918685323 6.980518959
     2   1 12.462707582 15.599838840 10.041416740
     3   1 9.008276710 7.165140278 9.513729880
     4   1 14.960223844 8.961164567 6.960405451
     5   1 10.726112704 8.314188093 11.679562442
     6   1 5.039776156 7.818429202 9.185046722
     7   1 6.191327351 7.065413012 8.944439280
     8   1 5.267892587 8.175737885 8.760025232
     9   1 6.833140050 12.799559975 11.672218992
    10   1 13.525292028 12.039915400 6.551482299
    11   1 13.162011278 6.595237550 12.518027126
    12   1 9.645273501 14.756749095 8.507589862
    13   1 13.829634796 8.464986054 12.709854903
    14   1 7.119167053 7.070209493 6.629187892
    15   1 13.829443732 11.022943622 9.242173578
    16   1 9.392549007 7.850407772 11.923692665
    17   1 11.560445166 8.790798006 5.427664748
    18   1 10.723017739 14.023157414 8.375375995
    19   1 11.339804577 11.973439888 11.255172503
    20   1 11.206227542 4.400161160 9.904394532
    21   1 14.462999426 9.676779589 5.751367746
    22   1 13.144250356 8.222531641 5.913811202
    23   1 13.452957052 14.830776123 12.074991592
    24   1 12.515556785 11.688543970 10.044588926
    25   1 6.248521771 12.467365078 12.247860717
    26   1 13.244592098 8.175448340 11.817639439
    27   1 11.488757709 8.837399713 5.649388262
    28   1 9.228876711 13.492249530 9.824285671
    29   1 6.496560839 12.476381702 6.699120117
    30   1 10.064830690 11.445495433 12.544951799
    31   1 9.078949856 15.358355291 8.039323028
    32   1 14.402026647 10.184207073 13.358652542
    33   1 11.650316854 11.668456025 8.314141821
    34   1 10.459227563 13.706913149 14.062108417
    35   1 11.706538562 14.113391395 12.801537150
    36   1 11.667302597 7.244084361 14.721552380
    37   1 13.975349297 13.110940890 6.597385731
    38   1 10.401584503 6.127437124 6.669953183
    39   1 9.614708881 14.244772991 5.902494827
    40   1 12.425471739 13.593383676 9.565356497
    41   1 14.155047363 13.041673179 7.942668177
    42   1 9.461543663 10.650292738 5.878250437
    43   1 7.902434823 12.356734149 4.840906918
    44   1 7.777488044 10.208157670 12.118823901
    45   1 10.923333888 9.343530792 8.436059010
    46   1 8.083831422 8.252841547 12.504190715
    47   1 10.888834377 14.190580044 12.237300568
    48   1 11.710012249 9.168321268 10.843808870
    49   1 11.318485028 10.686201250 4.805121702
    50   1 12.423383119 14.905713087 7.049254529
    51   1 6.666110068 6.593594364 8.462202566
    52   1 9.149903473 5.354595080 8.189310771
    53   1 13.708912476 14.665398219 7.473209276
    54   1 12.360454123 8.510788143 15.194878298
    55   1 11.803996481 14.575252686 12.992173045
