ITEM: TIMESTEP
114
ITEM: NUMBER OF ATOMS
55
ITEM: BOX BOUNDS pp pp pp
0 20
0 20
0 20
ITEM: ATOMS id type x y z c_pea 
29 1 7.83431 7.43634 6.27071 -3.36229 
31 1 9.8498 5.73121 6.75251 -3.18126 
49 1 12.1938 6.63917 7.96452 -3.45224 
32 1 6.12876 9.50866 6.2329 -3.17433 
34 1 10.4284 8.34902 6.8364 -3.58915 
35 1 8.64765 10.0346 5.67917 -3.46482 
36 1 11.2175 10.9304 6.45377 -3.46333 
39 1 8.92954 11.8529 7.77966 -3.83412 
37 1 12.959 9.20712 7.96306 -3.42425 
38 1 6.84255 12.1261 6.14139 -3.3223 
41 1 8.30476 14.3343 6.63645 -3.16326 
40 1 9.40875 12.5211 5.14752 -3.15367 
42 1 10.9117 13.6208 7.14367 -3.42051 
30 1 7.57108 5.58743 8.12517 -3.28485 
1 1 7.06329 6.90377 10.4317 -3.52782 
44 1 5.79536 7.76774 8.1881 -3.26354 
47 1 8.58662 4.67306 10.416 -3.18376 
45 1 9.61808 6.97444 9.25188 -3.89633 
46 1 11.0105 5.40392 11.3601 -3.45292 
48 1 10.7145 4.48274 8.84939 -3.24727 
54 1 11.8796 7.90857 10.4545 -3.81731 
50 1 13.1773 5.18329 9.82061 -3.12946 
55 1 14.3464 7.60575 9.86224 -3.24822 
33 1 5.85694 10.9497 8.40344 -3.4917 
51 1 5.95945 9.3212 10.5318 -3.51429 
3 1 7.93295 11.2438 10.2705 -3.79306 
52 1 8.02397 9.12669 8.39199 -3.91324 
7 1 11.447 10.4099 11.7924 -3.89784 
53 1 10.6354 9.95903 9.07936 -3.89651 
20 1 8.9917 8.9072 11.2985 -3.96036 
5 1 13.7283 10.2797 10.3087 -3.51593 
43 1 12.6086 11.9822 8.51661 -3.49986 
8 1 5.62901 12.2912 10.9057 -3.27564 
9 1 6.87727 13.4511 8.73911 -3.46546 
4 1 10.4083 12.514 10.1021 -3.80294 
10 1 9.31492 14.766 9.05852 -3.4045 
11 1 8.0132 13.9028 11.2471 -3.55017 
12 1 11.9687 14.621 9.37522 -3.15609 
13 1 10.6029 14.5477 11.7711 -3.37149 
24 1 12.9417 12.8848 11.1027 -3.42915 
15 1 8.86871 6.45091 12.4693 -3.33667 
17 1 11.1524 7.74045 13.0741 -3.56023 
2 1 13.414 6.24518 12.1383 -3.13537 
14 1 6.89583 8.05115 12.8959 -3.16499 
18 1 6.69217 10.6054 12.7918 -3.497 
19 1 7.68958 11.6374 15.0291 -3.12949 
16 1 9.1214 9.38058 14.011 -3.57385 
21 1 11.9069 10.0171 14.3674 -3.33753 
22 1 9.21257 11.7505 12.6611 -3.81063 
26 1 10.1607 11.685 15.3348 -3.14956 
6 1 13.6898 8.74523 12.523 -3.39199 
23 1 13.8475 11.2897 12.9719 -3.15065 
25 1 6.61409 13.2162 13.2853 -3.1504 
27 1 9.1063 13.9238 14.0365 -3.26503 
28 1 11.6656 12.7666 13.4879 -3.47001 
