/tmp/LAMMPS-4korvb0z/data.lammps (written by ASE) 

55 	 atoms 
1  atom types
4.046898160294713 15.953101839705287  xlo xhi
4.514458862466699 15.4855411375333  ylo yhi
5.19243 14.80757  zlo zhi


Atoms 

     1   1 11.696901840 6.525611138 10.683870000
     2   1 9.596901840 14.217741138 13.179170000
     3   1 11.702001840 15.046741138 11.807170000
     4   1 11.865201840 12.655141138 13.107670000
     5   1 10.231601840 12.844441138 10.810470000
     6   1 13.274201840 10.586941138 11.916470000
     7   1 11.990201840 8.206371138 12.724270000
     8   1 7.351531840 10.650741138 14.719870000
     9   1 9.580631840 6.979981138 12.523570000
    10   1 10.394701840 10.350231138 12.097870000
    11   1 7.688221840 13.384441138 14.807570000
    12   1 8.030711840 11.918341138 12.466670000
    13   1 5.582481840 12.674141138 13.612270000
    14   1 7.103491840 14.408741138 12.196870000
    15   1 9.818991840 11.745941138 14.611670000
    16   1 9.692601840 9.032861138 14.346870000
    17   1 12.064101840 10.284591138 14.347870000
    18   1 9.355281840 8.182311138 10.173170000
    19   1 9.272741840 5.473821138 10.307770000
    20   1 5.744591840 12.113941138 10.954870000
    21   1 5.480461840 10.239191138 12.870470000
    22   1 7.798141840 9.054041138 12.411970000
    23   1 5.907711840 9.459101138 10.380570000
    24   1 8.321951840 10.739241138 10.039370000
    25   1 7.074221840 7.031271138 10.660670000
    26   1 14.108601840 8.180841138 10.839970000
    27   1 13.821001840 11.301851138 9.353340000
    28   1 13.191401840 13.898841138 8.756230000
    29   1 10.905361840 14.884341138 9.642540000
    30   1 8.891601840 15.485541138 7.996860000
    31   1 12.994401840 6.898791138 8.311290000
    32   1 11.697801840 9.465851138 7.858280000
    33   1 12.999001840 11.988241138 6.882350000
    34   1 11.136031840 12.146741138 8.977270000
    35   1 14.297401840 9.390911138 7.301250000
    36   1 9.068511840 10.618711138 7.890070000
    37   1 7.773461840 10.557911138 5.723170000
    38   1 8.518401840 13.112941138 9.166110000
    39   1 8.421241840 13.138841138 6.417250000
    40   1 10.538651840 11.597541138 5.829520000
    41   1 12.627601840 10.026151138 5.192430000
    42   1 6.450771840 11.834141138 7.908190000
    43   1 10.962091840 14.003441138 7.052230000
    44   1 13.858801840 8.519661138 10.179670000
    45   1 8.057671840 8.085601138 6.835630000
    46   1 9.408331840 8.468371138 9.515830000
    47   1 10.381691840 6.933161138 7.610150000
    48   1 10.151561840 8.957171138 5.603050000
    49   1 6.730471840 9.297591138 8.719030000
    50   1 12.484201840 7.595981138 5.927360000
    51   1 6.556121840 14.527041138 7.670400000
    52   1 15.561201840 7.489251138 8.438590000
    53   1 15.953101840 9.796971138 9.450650000
    54   1 10.581398114 4.514458862 6.050279265
    55   1 4.046898160 12.649302409 6.537021362
