/tmp/LAMMPS-w_9tvfj1/data.lammps (written by ASE) 

55 	 atoms 
1  atom types
4.651679999999999 15.348320000000001  xlo xhi
5.266789999999999 14.73321  ylo yhi
4.510779999999999 15.489220000000001  zlo zhi


Atoms 

     1   1 14.112220000 10.773810000 13.279220000
     2   1 12.518820000 11.587310000 11.029620000
     3   1 14.877020000 10.124010000 10.606140000
     4   1 11.041120000 14.370110000 12.435320000
     5   1 12.874220000 14.169610000 10.479010000
     6   1 15.025920000 12.694810000 11.290520000
     7   1 8.754970000 10.533010000 12.886820000
     8   1 7.880720000 8.742120000 14.745820000
     9   1 9.046250000 13.103310000 13.960920000
    10   1 10.704170000 8.765060000 13.947820000
    11   1 12.340320000 10.330910000 15.424820000
    12   1 8.455020000 14.733210000 11.900620000
    13   1 15.348320000 8.352550000 12.475120000
    14   1 13.706620000 6.316880000 12.697120000
    15   1 12.692820000 8.773840000 11.993920000
    16   1 13.665820000 8.331210000 14.538720000
    17   1 14.083920000 7.561970000 10.012080000
    18   1 10.974820000 6.422680000 12.199520000
    19   1 9.166470000 6.490270000 14.347920000
    20   1 9.759510000 12.419710000 11.127720000
    21   1 12.782220000 5.266790000 10.470380000
    22   1 11.315020000 11.615210000 13.447220000
    23   1 9.618220000 10.811710000 15.489220000
    24   1 9.481930000 8.691980000 11.170620000
    25   1 8.259560000 11.265910000 11.037120000
    26   1 6.488990000 10.381910000 12.793520000
    27   1 10.404920000 13.587310000 9.555750000
    28   1 11.992320000 12.607310000 7.746840000
    29   1 7.805040000 13.325210000 9.147460000
    30   1 14.282020000 8.845900000 7.838130000
    31   1 10.142420000 10.792610000 9.069270000
    32   1 12.943720000 10.584010000 9.469220000
    33   1 6.827270000 8.624530000 10.725320000
    34   1 7.370660000 10.677910000 8.433020000
    35   1 5.269520000 13.029510000 8.920620000
    36   1 6.691450000 12.512310000 6.670580000
    37   1 13.836320000 6.403540000 8.689770000
    38   1 11.517720000 11.537810000 5.305070000
    39   1 9.385990000 12.439410000 7.020070000
    40   1 11.140020000 9.010460000 4.510780000
    41   1 11.625220000 8.053990000 9.197530000
    42   1 7.357720000 7.510530000 6.442460000
    43   1 11.662020000 9.691590000 7.088880000
    44   1 12.782620000 7.258080000 6.300980000
    45   1 9.674250000 6.039110000 9.969120000
    46   1 10.128220000 7.337370000 6.290300000
    47   1 11.434220000 5.596280000 8.010260000
    48   1 9.054100000 9.937210000 6.140510000
    49   1 8.771290000 5.467040000 7.509260000
    50   1 8.810560000 8.283250000 8.514670000
    51   1 5.657130000 8.576570000 8.240880000
    52   1 6.398930000 9.933140000 5.945520000
    53   1 5.298950000 10.746510000 10.251520000
    54   1 4.651680000 10.950910000 7.583090000
    55   1 13.986620000 11.314010000 6.890650000
