ITEM: TIMESTEP
126
ITEM: NUMBER OF ATOMS
55
ITEM: BOX BOUNDS pp pp pp
0 20
0 20
0 20
ITEM: ATOMS id type x y z c_pea 
44 1 6.54937 7.49934 7.74375 -3.34604 
29 1 11.3099 7.83017 7.32372 -3.51529 
32 1 8.78648 8.68433 6.5438 -3.44371 
33 1 11.011 9.41091 5.14417 -3.22369 
34 1 10.7358 10.9787 7.23193 -3.85939 
37 1 8.19896 11.2215 6.16402 -3.33784 
35 1 13.4984 9.19113 6.67221 -3.35988 
40 1 12.8307 11.3183 5.28803 -3.16926 
53 1 13.7244 11.7324 7.78769 -3.42258 
36 1 6.71726 12.8214 7.99876 -3.3076 
31 1 10.3567 12.0396 4.78822 -3.1667 
38 1 9.22612 13.531 6.80355 -3.44745 
39 1 11.9161 13.418 6.63246 -3.32569 
1 1 6.45516 5.08678 11.3955 -3.15133 
41 1 7.06254 5.08149 8.85981 -3.14975 
42 1 4.96087 6.39385 9.71913 -3.15306 
43 1 7.45793 7.53289 10.253 -3.81623 
28 1 9.14175 6.57016 8.23412 -3.45789 
2 1 9.08038 5.41915 10.7273 -3.41478 
3 1 11.1551 7.30318 10.1692 -3.75273 
4 1 13.1237 6.39416 11.5279 -2.9972 
48 1 13.6183 7.3744 8.96431 -3.28958 
30 1 6.94355 10.1298 8.2387 -3.62872 
6 1 7.4108 10.2609 10.98 -3.86342 
45 1 5.06558 8.98921 9.80574 -3.42376 
50 1 5.35666 11.6861 10.0815 -3.30819 
7 1 9.43809 8.43724 11.9684 -3.81832 
10 1 11.2249 10.4014 11.3101 -3.81749 
46 1 9.45007 9.27239 9.13013 -3.93378 
8 1 13.7755 8.92512 11.2827 -3.49294 
9 1 13.813 11.5164 10.6531 -3.42833 
47 1 12.3154 9.72547 9.03416 -3.67467 
49 1 14.9958 9.67027 8.94588 -3.16043 
11 1 7.15937 13.4688 10.8249 -3.51172 
13 1 9.78186 14.3428 10.9025 -3.55158 
55 1 8.13762 14.8872 8.81445 -3.15557 
51 1 10.72 14.9285 8.47172 -3.09614 
52 1 8.96271 12.0944 9.2237 -3.93369 
54 1 11.6454 12.6238 9.36639 -3.71428 
5 1 5.62728 7.58674 12.1941 -3.37897 
16 1 7.92319 6.47245 13.0581 -3.40375 
15 1 10.6912 6.01707 12.7099 -3.30397 
17 1 9.64221 7.67891 14.5829 -3.13723 
19 1 4.963 10.0722 12.2549 -3.16253 
21 1 7.4522 9.37728 13.588 -3.60881 
22 1 9.22569 11.9334 12.1818 -3.83378 
23 1 10.2903 10.1555 14.0883 -3.54048 
20 1 8.26626 11.743 14.7898 -3.18362 
18 1 12.0108 8.25418 13.1622 -3.50596 
24 1 12.8595 10.8972 13.2864 -3.27384 
26 1 6.44963 12.0467 12.942 -3.38471 
12 1 10.6714 15.0309 13.2545 -2.85235 
14 1 11.9704 13.0758 12.0325 -3.46312 
25 1 10.7355 12.7547 14.3723 -3.29181 
27 1 8.30907 14.0772 13.3896 -3.27744 
