ITEM: TIMESTEP
94
ITEM: NUMBER OF ATOMS
55
ITEM: BOX BOUNDS pp pp pp
0 20
0 20
0 20
ITEM: ATOMS id type x y z c_pea 
2 1 7.62703 6.84201 7.45538 -3.33852 
6 1 10.4401 7.68885 6.86385 -3.54795 
12 1 6.11942 8.76645 6.34817 -3.14908 
16 1 7.44827 10.7542 5.42795 -3.14704 
32 1 6.31946 11.1143 7.877 -3.48755 
3 1 11.0662 8.9964 4.54133 -2.99322 
5 1 8.50289 8.36263 5.24037 -3.28658 
14 1 10.0086 10.6167 6.22547 -3.68548 
17 1 8.42512 9.3165 7.98025 -3.87525 
21 1 12.1614 11.0327 7.96415 -3.76176 
8 1 12.8296 8.83628 6.46005 -3.43444 
13 1 12.4854 11.2951 5.26296 -3.3068 
25 1 14.6526 10.9372 6.8076 -3.15717 
28 1 8.14978 12.7894 6.91651 -3.33524 
29 1 10.8627 13.1872 6.61899 -3.43177 
30 1 13.4807 13.2309 7.01752 -3.1603 
1 1 6.88542 6.25663 10.0445 -3.27786 
4 1 9.69489 6.16655 8.94696 -3.44137 
10 1 8.90822 5.31159 11.4467 -3.16562 
11 1 11.259 6.47313 11.0881 -3.52907 
15 1 8.72579 7.96999 10.6939 -3.85856 
7 1 12.4622 6.97675 8.58972 -3.30018 
9 1 5.9485 8.55963 8.9517 -3.49129 
18 1 5.82354 8.48786 11.5508 -3.50892 
24 1 5.04936 10.9247 10.1767 -3.11075 
31 1 7.58569 10.5094 10.4238 -3.79642 
22 1 10.9541 8.95615 9.34515 -3.91277 
33 1 10.0344 11.4884 11.6512 -3.81285 
34 1 9.64569 11.7646 8.92216 -3.89705 
20 1 13.4268 8.0136 11.0045 -3.52156 
23 1 14.1121 9.25392 8.78408 -3.49636 
35 1 12.5758 10.8326 10.7722 -3.86607 
36 1 15.2501 10.0903 11.0231 -3.1603 
37 1 7.2946 13.0343 9.67213 -3.43343 
38 1 9.51485 14.0136 10.9571 -3.4123 
39 1 11.8375 13.4774 9.2275 -3.57601 
40 1 9.38292 14.4973 8.43568 -3.15386 
41 1 14.4062 12.1289 9.3424 -3.45541 
55 1 12.1171 13.4862 11.8165 -3.35117 
26 1 7.28016 6.78161 12.9241 -3.36885 
19 1 9.83196 6.97626 13.4988 -3.51415 
27 1 12.5401 7.1313 13.4397 -3.16291 
42 1 7.04048 10.9851 14.9361 -3.14791 
43 1 6.0158 8.67363 14.3056 -3.16736 
44 1 5.63309 10.8642 12.7139 -3.28993 
45 1 8.20712 9.52322 12.8902 -3.8104 
46 1 11.2621 9.02281 14.84 -3.32435 
47 1 8.54362 8.59868 15.284 -3.25277 
48 1 9.59728 11.1212 14.59 -3.45106 
49 1 11.0223 9.04108 12.2177 -3.81688 
50 1 12.0565 11.5284 13.6568 -3.51913 
51 1 13.6916 9.55568 13.1969 -3.41251 
53 1 7.72258 12.4681 12.5797 -3.53438 
54 1 10.0668 13.499 13.534 -3.16893 
52 1 14.3595 12.1466 12.2485 -3.14442 
