ITEM: TIMESTEP
252
ITEM: NUMBER OF ATOMS
55
ITEM: BOX BOUNDS ss ss ss
3.97934 15.2519
4.66159 15.1079
5.13637 14.8844
ITEM: ATOMS id type x y z c_pea 
47 1 6.4948 7.31052 7.20014 -3.42346 
12 1 8.78276 5.91655 7.1648 -3.42744 
43 1 7.08215 9.83747 6.00441 -3.30269 
39 1 9.12649 8.67336 7.63808 -3.96554 
53 1 8.15435 7.6557 5.13754 -3.14662 
7 1 6.22433 9.47818 8.66024 -3.52801 
18 1 5.16119 7.16001 9.72798 -3.53366 
22 1 6.80861 5.05924 8.77171 -3.30243 
25 1 7.89922 7.40404 9.71137 -3.82396 
50 1 9.45797 5.22644 9.80143 -3.43317 
16 1 11.1602 6.57371 8.12381 -3.46583 
46 1 10.6243 7.31846 5.62434 -3.14746 
42 1 11.9224 9.13879 6.98711 -3.42647 
6 1 13.1373 7.8904 9.25351 -3.51887 
34 1 8.46117 12.2387 5.47728 -2.97706 
38 1 8.16293 11.3719 7.87725 -3.60705 
35 1 8.59058 13.9453 7.60402 -3.08688 
40 1 9.75432 9.92775 5.35695 -3.39972 
54 1 10.1123 12.9456 9.43936 -3.5614 
41 1 10.9488 10.4022 9.04861 -3.76367 
15 1 13.7366 10.4396 8.71761 -3.33475 
31 1 10.669 11.9381 6.88163 -3.35359 
19 1 7.13885 5.45663 11.4576 -3.48538 
51 1 4.86719 4.66288 10.3976 -2.80384 
55 1 4.82459 6.3927 12.3315 -3.27822 
21 1 6.57072 8.624 11.8385 -3.89795 
17 1 7.35743 6.93669 13.8074 -3.41482 
14 1 9.53678 6.33666 12.3403 -3.52053 
4 1 4.89515 8.20496 14.1082 -3.13525 
5 1 7.17942 9.48046 14.5676 -3.42874 
26 1 3.98079 8.87368 11.5276 -3.19707 
1 1 9.24134 9.09594 12.5823 -3.78426 
8 1 10.4958 8.03886 10.3296 -3.83623 
52 1 11.8986 5.89156 10.8453 -3.29843 
11 1 12.5467 9.7861 11.2277 -3.85945 
3 1 13.9452 7.28819 11.803 -3.17416 
48 1 15.2505 9.03819 10.5014 -3.12182 
10 1 9.65804 8.22337 14.8832 -3.18455 
24 1 11.7193 7.73416 13.0426 -3.51662 
2 1 14.2768 9.64539 13.1039 -3.23078 
33 1 5.562 10.9859 10.6853 -3.34527 
9 1 8.37281 10.2337 10.2502 -3.87593 
30 1 7.45908 12.9171 10.1083 -3.49352 
49 1 8.98266 15.1066 10.1268 -2.95406 
36 1 8.82758 13.7354 12.358 -3.31764 
13 1 5.0187 10.609 13.2514 -3.15613 
23 1 9.27456 11.0988 14.5674 -3.34105 
37 1 7.47416 11.4453 12.5835 -3.64408 
28 1 10.3891 11.5379 11.8257 -3.9308 
44 1 12.6789 12.4633 10.0701 -3.45018 
29 1 11.2867 14.2049 11.6038 -3.29222 
20 1 11.6735 10.2082 14.0089 -3.52063 
45 1 14.8886 11.4325 11.0932 -3.13913 
32 1 10.876 13.0668 14.0125 -3.15456 
27 1 13.0193 12.2045 12.765 -3.42458 
