/tmp/LAMMPS-cpw7aamr/data.lammps (written by ASE) 

55 	 atoms 
1  atom types
4.59932877678419 15.40067122321581  xlo xhi
4.89721627377002 15.10278372622998  ylo yhi
4.0988034988737745 15.901196501126226  zlo zhi


Atoms 

     1   1 9.368099829 11.418624032 11.673596377
     2   1 9.247098088 14.644866120 13.595563412
     3   1 14.306508213 9.954607097 13.076577613
     4   1 8.564276972 10.256316518 7.923396151
     5   1 4.599328777 11.277805898 9.234327574
     6   1 11.066424513 14.946244987 9.138545810
     7   1 8.116772516 12.326393144 7.616323292
     8   1 7.036894472 11.407115913 8.352190345
     9   1 7.642870426 10.105983974 4.700123542
    10   1 12.906962480 8.228464481 13.052869436
    11   1 5.620497248 8.999261248 14.118469107
    12   1 13.349319427 9.504359380 5.179220576
    13   1 9.305261962 9.992738405 15.901196501
    14   1 12.580981876 10.167686483 10.491195111
    15   1 13.734372270 14.607044092 10.863309665
    16   1 12.701580958 10.428614536 7.591467962
    17   1 13.906355555 9.191990701 8.289782629
    18   1 6.467778368 6.592763505 7.452398574
    19   1 12.678246932 9.367469569 11.506430231
    20   1 7.718535862 13.964502852 12.803387348
    21   1 12.302548748 12.513460810 9.130061203
    22   1 10.152023466 13.004824272 10.925896373
    23   1 11.992757614 12.129226875 9.265261258
    24   1 8.956377893 14.633788613 9.930017252
    25   1 9.132153363 11.135868388 10.293448890
    26   1 14.014161238 11.064959375 11.097198032
    27   1 10.245092937 15.045874863 7.427582669
    28   1 10.246497570 8.636364599 13.952699256
    29   1 8.851736804 12.239380924 11.623765966
    30   1 11.516884421 11.800343834 10.521005766
    31   1 9.692442225 7.516589534 7.151549201
    32   1 7.817477143 11.320502985 12.510648534
    33   1 10.945072996 11.357366216 4.098803499
    34   1 6.974673712 8.662452858 9.458776130
    35   1 10.577499232 7.528094182 14.654493100
    36   1 8.169980394 15.102783726 8.742579536
    37   1 4.744398179 10.815578651 10.761598493
    38   1 14.109214547 9.937815379 11.790374586
    39   1 5.603895872 13.775752451 7.037170257
    40   1 12.460426227 9.378681729 6.719426219
    41   1 9.127042053 7.496840450 14.641263270
    42   1 7.157554898 6.154912958 9.108255016
    43   1 11.026314913 14.463838451 8.695310480
    44   1 8.148010155 4.897216274 11.661896979
    45   1 12.796653201 8.871037439 13.625138659
    46   1 10.358035061 8.839032287 12.329669275
    47   1 8.952964634 14.705549178 8.692490000
    48   1 5.633732437 14.188290339 10.550835376
    49   1 7.286913778 6.160432128 7.585172949
    50   1 15.400671223 11.093163167 8.688073552
    51   1 9.024727754 12.074088117 13.296012218
    52   1 12.601406162 7.913169039 13.860689306
    53   1 7.127301554 6.741727570 8.417527286
    54   1 5.945012262 9.207512219 13.052388717
    55   1 13.555901392 13.158376891 13.471834075
