ITEM: TIMESTEP
92
ITEM: NUMBER OF ATOMS
55
ITEM: BOX BOUNDS ss ss ss
5.31553 14.8352
4.37352 15.2679
5.30875 14.7095
ITEM: ATOMS id type x y z c_pea 
40 1 8.5983 6.41436 8.95476 -3.64695 
42 1 5.58583 9.42954 9.93238 -3.39457 
50 1 8.35577 6.83256 6.21932 -3.17112 
55 1 6.71623 8.12227 7.93131 -3.51406 
31 1 9.79999 8.77517 7.72593 -3.93157 
45 1 7.69385 9.31195 5.75806 -3.27193 
32 1 10.2447 4.37463 9.26463 -3.12659 
8 1 11.0685 7.38393 9.81701 -3.88913 
29 1 12.5215 7.6388 7.32291 -3.52008 
38 1 12.6568 5.45422 9.18048 -3.26896 
39 1 14.6103 9.29608 7.40275 -3.15274 
43 1 10.4281 8.19587 5.30967 -3.24607 
46 1 14.1789 7.7329 9.49344 -3.39445 
49 1 10.6285 5.944 7.17892 -3.36858 
34 1 12.4337 9.80124 9.23502 -3.92172 
53 1 5.41162 10.4366 7.30705 -3.0916 
30 1 6.48122 13.1865 7.60945 -3.25924 
33 1 5.3165 11.987 9.47058 -3.18147 
37 1 9.73813 10.9007 5.61633 -3.39537 
48 1 8.9845 13.2641 6.68354 -3.43289 
51 1 7.98724 15.2209 8.34677 -3.15915 
54 1 7.8031 10.8114 8.02545 -3.78526 
9 1 8.64544 12.8742 9.53091 -3.67996 
44 1 12.1845 10.1045 6.29647 -3.54268 
47 1 10.5883 11.4867 8.14665 -3.73115 
14 1 12.7671 12.8147 9.07637 -3.46462 
15 1 14.8342 10.8197 9.54388 -3.26057 
35 1 14.0242 11.7804 7.134 -3.12829 
41 1 10.6378 14.4438 8.48164 -3.44526 
52 1 11.7249 12.9368 6.34655 -3.2602 
3 1 9.17921 7.27127 11.8884 -3.84911 
12 1 6.71884 8.74975 12.4569 -3.41866 
19 1 8.66044 7.73933 14.4427 -3.30945 
20 1 9.14493 5.10435 13.6646 -3.14797 
23 1 8.33751 9.07986 10.1166 -3.87038 
25 1 6.50509 6.90565 10.5376 -3.42086 
26 1 8.26315 4.80059 11.146 -3.33354 
28 1 6.88916 6.17857 13.0794 -3.16297 
2 1 11.5811 9.03967 12.1061 -3.92022 
5 1 10.9735 5.11555 11.602 -3.45362 
7 1 14.3028 9.23133 11.7028 -3.43074 
10 1 13.4339 8.06643 14.0178 -3.13881 
17 1 13.1005 6.71001 11.7029 -3.46984 
18 1 10.986 9.31948 14.7086 -3.32933 
24 1 11.1766 6.77256 13.8092 -3.45413 
36 1 6.61018 14.0903 10.4889 -3.23238 
6 1 7.11121 11.2843 11.2797 -3.59786 
21 1 8.7571 13.0631 12.3172 -3.38945 
22 1 8.9522 10.0597 13.0326 -3.62113 
27 1 9.04779 15.2668 10.7238 -3.15177 
1 1 11.0924 13.6011 11.0834 -3.47246 
4 1 12.9623 11.5734 11.4442 -3.56125 
11 1 10.9794 11.8103 13.3407 -3.41317 
13 1 13.2391 10.5776 13.8963 -3.15089 
16 1 10.2193 11.0073 10.8073 -3.83356 
