ITEM: TIMESTEP
264
ITEM: NUMBER OF ATOMS
55
ITEM: BOX BOUNDS ss ss ss
5.44516 15.0073
4.20093 14.7469
5.20438 14.9868
ITEM: ATOMS id type x y z c_pea 
9 1 9.34489 9.06527 5.68943 -3.53096 
26 1 6.38727 5.4201 8.42759 -3.17617 
50 1 5.84294 7.94397 8.49468 -3.42114 
52 1 7.6745 6.89994 6.60453 -3.28138 
6 1 8.52552 8.61328 8.29934 -3.72403 
20 1 9.10864 5.37544 8.57022 -3.51131 
7 1 10.5027 6.98142 7.02529 -3.52064 
14 1 12.082 8.68132 5.52926 -3.3009 
16 1 14.7246 9.28966 8.65936 -3.36197 
21 1 14.5396 8.43403 6.18886 -2.8279 
22 1 12.9707 7.39248 8.00635 -3.52421 
27 1 10.49 7.58122 9.84742 -3.83798 
13 1 11.9414 5.47698 9.49152 -3.22426 
41 1 6.39458 10.575 9.00014 -3.54905 
48 1 6.84117 9.7577 6.49692 -3.39561 
4 1 9.46122 13.5793 6.62216 -3.3244 
5 1 9.14279 11.2146 7.78799 -3.83719 
8 1 7.99506 14.7458 8.50523 -2.99092 
35 1 8.0324 12.5678 9.88657 -3.60318 
49 1 6.93456 12.6174 7.22986 -3.29683 
54 1 8.32572 11.5716 5.20541 -3.1769 
23 1 11.3822 9.64905 7.94011 -3.91643 
2 1 10.3847 14.0891 9.2162 -3.35977 
3 1 10.966 11.2234 5.55181 -3.41725 
15 1 13.4892 11.5755 9.50174 -3.44902 
17 1 13.5272 10.7343 6.71319 -3.33704 
18 1 11.7853 12.5275 7.67762 -3.43019 
39 1 7.39829 4.20202 10.4577 -3.16016 
28 1 9.8735 5.0522 11.1984 -3.54533 
36 1 10.1451 5.52347 13.8965 -3.16465 
40 1 9.30024 7.63416 12.4576 -3.77698 
44 1 6.43106 7.4265 13.1543 -3.27103 
45 1 5.86521 8.87182 11.0715 -3.45632 
46 1 7.7092 5.28223 12.8415 -3.34679 
47 1 5.44612 6.05752 10.9596 -3.20883 
51 1 7.74855 6.9425 10.3729 -3.77762 
53 1 8.54107 7.50552 14.917 -3.2518 
10 1 14.1088 7.20369 10.4942 -3.2963 
24 1 12.5026 9.23856 10.4418 -3.72395 
25 1 13.4989 8.6486 12.9458 -3.41812 
29 1 11.2756 7.85934 14.4957 -3.44721 
43 1 11.9485 6.65126 12.0507 -3.60438 
55 1 8.91435 14.5426 11.2873 -3.00745 
32 1 9.75826 10.0408 14.9858 -3.30053 
34 1 8.52687 9.83707 10.7423 -3.93079 
30 1 7.67875 9.75138 13.3807 -3.51321 
33 1 8.98595 12.0723 12.4901 -3.63144 
42 1 6.42879 11.3996 11.6814 -3.17977 
19 1 10.7512 11.4802 10.161 -3.88483 
11 1 15.0064 9.87863 11.1791 -3.1415 
37 1 10.816 9.89132 12.5484 -3.86311 
38 1 12.487 10.2482 14.7608 -3.1515 
31 1 11.0929 12.264 14.056 -3.1787 
1 1 11.3042 13.4982 11.7354 -3.26195 
12 1 13.0427 11.4275 12.2536 -3.54601 
