ITEM: TIMESTEP
164
ITEM: NUMBER OF ATOMS
55
ITEM: BOX BOUNDS ss ss ss
4.75947 15.2406
5.20452 15.5298
5.31613 14.1587
ITEM: ATOMS id type x y z c_pea 
49 1 6.59572 7.59816 9.14313 -3.35312 
30 1 8.8631 6.58894 8.38077 -3.43604 
36 1 9.38563 9.79512 5.31707 -3.15441 
38 1 9.02488 9.58856 8.08415 -3.87273 
51 1 7.49446 8.24492 6.53852 -3.27105 
40 1 5.9433 10.0176 8.00285 -3.52982 
31 1 11.3414 5.62115 7.69943 -3.16267 
33 1 11.0388 8.04769 9.01924 -3.78205 
35 1 10.3407 7.66133 6.35374 -3.40441 
21 1 14.672 8.3187 9.42452 -3.44361 
23 1 14.2585 10.1118 7.48292 -3.17173 
24 1 13.2539 6.05455 9.50522 -3.44285 
32 1 13.0365 7.72745 7.27759 -3.36839 
28 1 11.6298 10.1352 7.08543 -3.6697 
43 1 7.95546 11.9951 8.75387 -3.7067 
45 1 5.80383 12.8993 7.55461 -3.14286 
34 1 9.83578 12.1275 6.50169 -3.43728 
42 1 7.35503 11.2184 6.14728 -3.34956 
44 1 8.22525 14.1379 7.31846 -3.24534 
29 1 10.6632 11.8627 9.14533 -3.8352 
41 1 11.0285 14.1195 7.68293 -3.1841 
19 1 13.2029 12.4088 8.3885 -3.42647 
20 1 15.2395 11.0373 9.71469 -3.15797 
52 1 4.76061 9.23523 10.3423 -3.16043 
46 1 6.3335 7.89082 11.9045 -3.14532 
48 1 7.44919 9.76971 10.3879 -3.74422 
50 1 8.9624 7.48446 11.134 -3.73354 
4 1 8.03349 9.57839 13.134 -3.51332 
22 1 12.6921 10.154 9.87758 -3.85649 
1 1 12.8351 5.20548 12.0601 -3.1417 
7 1 10.4305 8.48104 13.6274 -3.41016 
13 1 10.5989 6.0512 12.9206 -3.14302 
27 1 10.6966 5.52489 10.2973 -3.43885 
9 1 13.0265 7.45787 13.7298 -3.19842 
10 1 12.1494 7.82393 11.3907 -3.78283 
16 1 14.7509 6.88236 11.7173 -3.16546 
17 1 14.6132 9.49991 11.8613 -3.36738 
2 1 10.1431 9.96655 11.2265 -3.94806 
3 1 12.3712 10.2242 12.9482 -3.61579 
39 1 5.4086 11.8428 10.0258 -3.52843 
54 1 9.40518 14.3068 9.82606 -3.65793 
37 1 6.71836 14.2223 9.81631 -3.41568 
47 1 8.05001 14.7052 12.2874 -3.34751 
53 1 5.7636 10.6863 12.4638 -3.41172 
55 1 5.7873 13.3502 12.2203 -3.17634 
8 1 9.984 13.9271 13.9604 -3.33512 
11 1 8.20213 12.1506 11.5106 -3.87725 
14 1 9.96975 11.2183 13.9594 -3.52366 
26 1 7.55421 12.4154 13.9955 -3.26597 
5 1 10.9184 12.6749 11.7823 -3.82229 
6 1 12.7432 14.5611 12.7085 -3.09389 
25 1 10.5503 15.5288 11.8867 -3.16836 
12 1 12.2473 14.3054 10.05 -3.43133 
15 1 13.6035 12.2647 11.4455 -3.56249 
18 1 12.3378 12.5647 14.1578 -3.13262 
