ITEM: TIMESTEP
130
ITEM: NUMBER OF ATOMS
55
ITEM: BOX BOUNDS pp pp pp
0 20
0 20
0 20
ITEM: ATOMS id type x y z c_pea 
28 1 10.3212 7.59782 5.37376 -3.14 
29 1 11.1443 6.51489 7.57092 -3.44098 
43 1 8.34022 6.98948 7.28385 -3.46987 
27 1 6.19081 8.6189 7.40641 -3.42619 
37 1 6.13576 10.8531 5.6761 -3.13582 
49 1 7.83267 10.7238 7.88576 -3.83679 
51 1 5.06682 11.2211 7.91819 -3.13648 
30 1 8.16841 9.14245 5.54754 -3.45278 
32 1 10.7188 10.2244 5.26789 -3.46942 
47 1 10.0377 9.07108 7.7109 -3.85579 
38 1 8.56715 11.9276 5.44305 -3.47051 
31 1 12.5869 8.7626 6.63103 -3.46607 
35 1 12.9552 11.4182 6.36784 -3.44791 
52 1 6.8775 13.1134 7.17833 -3.30981 
33 1 10.5316 12.0412 7.56466 -3.9539 
39 1 11.002 12.7931 4.81453 -3.12827 
40 1 9.46759 14.2598 6.53916 -3.30988 
41 1 12.2935 14.0845 6.50169 -3.12569 
1 1 6.1395 7.92495 11.7615 -3.18753 
42 1 6.54549 6.67121 9.40669 -3.23405 
2 1 8.14895 6.31324 11.8946 -3.36522 
44 1 9.28479 5.89082 9.55568 -3.48479 
3 1 11.8733 5.13677 9.65531 -3.12115 
45 1 11.242 7.82246 10.1034 -3.92664 
34 1 13.5136 7.42699 8.67973 -3.39628 
4 1 13.4763 6.33378 11.1571 -3.14902 
46 1 5.74137 9.55131 9.83969 -3.38402 
48 1 8.26144 8.50757 9.82486 -3.84646 
5 1 11.868 10.0924 11.6639 -3.69885 
6 1 9.38305 10.9983 10.1352 -3.94451 
36 1 14.5176 10.1597 8.35188 -3.21522 
7 1 14.1602 8.89722 10.7926 -3.4938 
8 1 13.9707 11.5964 10.9065 -3.40009 
50 1 12.1081 10.2962 9.00054 -3.77937 
9 1 6.60619 12.0609 9.95043 -3.4456 
10 1 9.89981 15.0568 11.0211 -3.02391 
11 1 8.14457 13.2279 11.777 -3.46932 
53 1 8.73131 13.5414 9.09737 -3.61576 
55 1 11.1507 14.6521 8.72279 -3.30471 
26 1 11.3547 12.838 10.7673 -3.80988 
54 1 13.2183 12.7874 8.65158 -3.43338 
12 1 7.51486 7.96537 13.9295 -3.15088 
13 1 10.7885 5.95972 12.0397 -3.4398 
14 1 10.1046 7.38553 14.3941 -3.2124 
20 1 12.4701 7.80852 13.03 -3.48224 
15 1 7.33919 10.3835 12.1884 -3.71189 
18 1 9.5564 8.6503 12.2449 -3.83296 
16 1 11.5502 9.83758 14.5003 -3.51914 
17 1 8.86961 9.93304 14.8594 -3.38851 
19 1 9.8616 11.4076 12.8073 -3.58602 
21 1 14.0122 10.1031 13.2417 -3.15776 
22 1 8.00941 12.4397 14.325 -3.10992 
24 1 10.4776 12.1698 15.3116 -3.15418 
25 1 10.262 13.9828 13.3699 -3.27229 
23 1 12.458 12.2827 13.3242 -3.43754 
