/var/folders/35/zn93tsdx7p13vbrdj0l0gn9r0000gn/T/LAMMPS-6sovk_th/data.lammps (written by ASE) 

55 	 atoms 
1  atom types
0.0 20.000000000  xlo xhi
0.0 20.000000000  ylo yhi
0.0 20.000000000  zlo zhi


Atoms 

     1   1 13.328337909 10.472655000 5.871537909
     2   1 14.620237909 6.748865000 8.051487909
     3   1 13.264537909 7.844695000 6.080747909
     4   1 13.951437909 9.367155000 8.266467909
     5   1 11.035037909 9.585815000 4.674947909
     6   1 12.372137909 5.380875000 7.203277909
     7   1 11.351037909 12.124855000 5.939707909
     8   1 10.978637909 6.991825000 5.472417909
     9   1 12.837637909 11.783955000 8.349857909
    10   1 14.081837909 7.942615000 10.508637909
    11   1 13.513337909 5.294735000 9.797397909
    12   1 13.876637909 10.788055000 10.661537909
    13   1 11.166037909 9.394745000 7.211037909
    14   1 13.295037909 13.516355000 10.582037909
    15   1 11.983937909 7.366655000 8.798347909
    16   1 11.465837909 14.036655000 8.148647909
    17   1 8.886827909 10.923355000 5.921177909
    18   1 9.216267909 13.582955000 6.584397909
    19   1 11.479237909 9.711845000 10.099657909
    20   1 8.756587909 8.292965000 5.997797909
    21   1 10.932837909 4.852545000 9.582747909
    22   1 9.620957909 6.409525000 7.667767909
    23   1 10.045317909 11.676555000 8.316657909
    24   1 12.704037909 9.033015000 12.550037909
    25   1 11.876537909 6.648925000 11.523837909
    26   1 12.733737909 11.731455000 12.854837909
    27   1 11.115537909 15.147455000 10.483737909
    28   1 7.951862091 7.432565182 7.641012091
    29   1 8.138682091 10.002555182 7.046182091
    30   1 7.133482091 6.815775182 10.067152091
    31   1 8.826422091 4.898555182 11.478952091
    32   1 9.656472091 7.412155182 10.900152091
    33   1 9.448102091 5.529925182 8.989832091
    34   1 6.047862091 9.197855182 8.850752091
    35   1 5.697022091 8.536785182 11.533352091
    36   1 6.300142091 11.132405182 11.025452091
    37   1 7.182922091 11.927905182 8.663582091
    38   1 8.297552091 9.524095182 9.921152091
    39   1 9.509882091 11.556405182 11.606052091
    40   1 7.702432091 13.412105182 10.865952091
    41   1 10.179092091 14.201105182 11.040752091
    42   1 9.108852091 14.020105182 8.604492091
    43   1 7.518262091 6.775705182 12.769552091
    44   1 10.114452091 6.390565182 13.443352091
    45   1 7.171392091 10.374305182 15.325052091
    46   1 6.053282091 8.236385182 14.343452091
    47   1 5.379762091 10.564405182 13.419652091
    48   1 7.913802091 9.528035182 12.724452091
    49   1 11.573432091 8.636195182 14.895552091
    50   1 8.831902091 8.216535182 14.898352091
    51   1 9.672472091 10.817205182 14.599352091
    52   1 10.718532091 9.150925182 12.592452091
    53   1 12.145232091 11.384505182 13.823652091
    54   1 7.551662091 12.258605182 13.376052091
    55   1 10.187812091 13.253705182 13.503452091
