/var/folders/35/zn93tsdx7p13vbrdj0l0gn9r0000gn/T/LAMMPS-nlkgpr35/data.lammps (written by ASE) 

5 	 atoms 
1  atom types
0.0 10.000000000  xlo xhi
0.0 10.000000000  ylo yhi
0.0 10.000000000  zlo zhi


Atoms 

     1   1 6.038044417 3.500573431 4.076269947
     2   1 5.982340147 4.482481993 6.492839947
     3   1 3.961955583 4.303132789 5.110769947
     4   1 5.221655579 6.499426569 5.128903742
     5   1 5.695526623 4.718943276 3.507160053
