/var/folders/35/zn93tsdx7p13vbrdj0l0gn9r0000gn/T/LAMMPS-0onndxwp/data.lammps (written by ASE) 

55 	 atoms 
1  atom types
0.0 20.000000000  xlo xhi
0.0 20.000000000  ylo yhi
0.0 20.000000000  zlo zhi


Atoms 

     1   1 6.215352000 7.575480000 11.299620091
     2   1 10.203512000 6.496310000 11.534620091
     3   1 7.964092000 5.733990000 10.228720091
     4   1 12.792312000 6.262840000 10.666920091
     5   1 10.960412000 11.381810000 11.330820091
     6   1 8.473582000 8.813080000 10.841120091
     7   1 11.595612000 8.593710000 10.135220091
     8   1 8.132702000 11.568110000 10.231220091
     9   1 13.384612000 10.760910000 10.013820091
    10   1 7.919712000 14.387810000 10.421820091
    11   1 5.662162000 12.492210000 10.161320091
    12   1 10.708112000 15.290810000 10.870120091
    13   1 12.844612000 13.392510000 10.494020091
    14   1 7.885712000 6.088000000 12.806020091
    15   1 9.897002000 7.012780000 14.325220091
    16   1 12.288012000 6.876090000 13.263920091
    17   1 6.236242000 10.305910000 11.999520091
    18   1 7.748512000 8.515090000 13.535920091
    19   1 9.769342000 9.495910000 15.176520091
    20   1 11.022212000 11.629010000 14.156120091
    21   1 8.619042000 10.986010000 13.070820091
    22   1 10.604112000 9.036860000 12.665220091
    23   1 12.414512000 9.308850000 14.505920091
    24   1 13.538712000 8.793390000 12.031420091
    25   1 13.254512000 11.359910000 12.719520091
    26   1 6.831152000 12.908710000 12.408820091
    27   1 9.462492000 13.459210000 12.388620091
    28   1 11.992712000 13.756410000 12.850520091
    29   1 7.825748000 7.662790000 5.946669909
    30   1 9.841238000 5.957660000 6.428469909
    31   1 12.185238000 6.865620000 7.640479909
    32   1 6.120198000 9.735110000 5.908859909
    33   1 10.419838000 8.575470000 6.512359909
    34   1 8.639088000 10.261050000 5.355129909
    35   1 11.208938000 11.156850000 6.129729909
    36   1 8.920978000 12.079350000 7.455619909
    37   1 12.950438000 9.433570000 7.639019909
    38   1 6.833988000 12.352550000 5.817349909
    39   1 8.296198000 14.560750000 6.312409909
    40   1 9.400188000 12.747550000 4.823479909
    41   1 10.903138000 13.847250000 6.819629909
    42   1 7.562518000 5.813880000 7.801129909
    43   1 5.786798000 7.994190000 7.864059909
    44   1 9.609518000 7.200890000 8.927839909
    45   1 10.705938000 4.709190000 8.525349909
    46   1 13.168738000 5.409740000 9.496569909
    47   1 14.337838000 7.832200000 9.538199909
    48   1 5.848378000 11.176150000 8.079399909
    49   1 8.015408000 9.353140000 8.067949909
    50   1 10.626838000 10.185480000 8.755319909
    51   1 12.600038000 12.208650000 8.192569909
    52   1 6.868708000 13.677550000 8.415069909
    53   1 10.399738000 12.740450000 9.778059909
    54   1 9.306358000 14.992450000 8.734479909
    55   1 11.960138000 14.847450000 9.051179909
