ITEM: TIMESTEP
112
ITEM: NUMBER OF ATOMS
55
ITEM: BOX BOUNDS pp pp pp
0 20
0 20
0 20
ITEM: ATOMS id type x y z c_pea 
29 1 7.87509 7.63502 5.92252 -3.43238 
42 1 7.82946 5.67971 7.77362 -3.1818 
30 1 9.8963 5.83078 6.12121 -3.1665 
31 1 12.1476 6.70942 7.33425 -3.41859 
32 1 6.07666 9.53038 6.26879 -3.14856 
33 1 10.5142 8.43471 5.67536 -3.42943 
34 1 8.44637 10.1237 4.82518 -3.31683 
35 1 10.8662 11.0281 6.12586 -3.53126 
49 1 8.42537 9.99614 7.44537 -3.75647 
37 1 12.5164 9.2917 7.51094 -3.47281 
38 1 6.96267 12.061 6.18939 -3.45614 
36 1 9.24878 12.5512 7.75417 -3.75498 
39 1 8.23091 14.6034 6.2588 -3.14339 
40 1 9.25337 12.6826 4.90542 -3.18396 
41 1 10.9639 14.1009 6.56037 -3.29262 
1 1 6.51754 7.58914 11.3429 -3.17771 
3 1 8.59169 6.39917 10.2962 -3.57905 
2 1 10.9049 5.48203 11.4249 -3.44672 
44 1 9.66146 7.71025 8.11672 -3.78023 
45 1 10.3394 5.07487 8.68822 -3.39595 
7 1 11.509 7.75811 10.0679 -3.89911 
4 1 13.5345 6.26298 11.5969 -3.14139 
46 1 12.8363 5.26078 9.40518 -3.14472 
47 1 13.9847 7.72074 9.3129 -3.26443 
43 1 6.72943 8.02316 8.5573 -3.568 
17 1 6.16768 10.2836 11.4844 -3.45606 
48 1 6.12905 10.8069 8.68571 -3.55335 
5 1 11.1227 10.8478 11.7067 -3.83606 
6 1 8.42732 9.2058 10.3574 -3.8633 
8 1 8.08496 11.9305 10.2523 -3.84414 
50 1 10.6313 10.353 9.05254 -3.85801 
9 1 13.2895 10.3097 9.9324 -3.53397 
10 1 7.77244 14.5717 10.7372 -3.41298 
11 1 5.46869 12.7633 10.411 -3.12753 
52 1 6.81925 13.69 8.35895 -3.43833 
12 1 10.409 15.494 11.0818 -3.17094 
53 1 10.5703 13.0361 10.1602 -3.74993 
54 1 9.36223 15.1633 8.61782 -3.45985 
55 1 12.046 14.8314 8.96638 -3.21599 
13 1 13.3054 12.8859 10.4886 -3.29047 
51 1 12.3511 12.2503 8.03593 -3.53958 
14 1 8.65751 6.15786 12.927 -3.23695 
15 1 9.71943 7.47079 14.9416 -3.14305 
16 1 11.8325 6.73769 13.5706 -3.28434 
18 1 7.54478 8.53754 13.5191 -3.37247 
19 1 9.3244 9.9623 15.1029 -3.11281 
20 1 10.9325 11.939 14.1903 -3.32417 
21 1 8.5969 10.8748 12.7857 -3.65612 
22 1 10.0653 8.35149 12.3686 -3.83023 
23 1 11.7657 9.42223 14.2822 -3.43229 
24 1 13.127 8.7727 12.0921 -3.51496 
25 1 13.3559 11.4149 12.8311 -3.24735 
26 1 6.72834 12.7928 12.5841 -3.15549 
27 1 9.32264 13.5117 12.6482 -3.48706 
28 1 11.9709 13.7497 12.4969 -3.30078 
