/var/folders/35/zn93tsdx7p13vbrdj0l0gn9r0000gn/T/LAMMPS-2yvx6r1z/data.lammps (written by ASE) 

5 	 atoms 
1  atom types
0.0 10.000000000  xlo xhi
0.0 10.000000000  ylo yhi
0.0 10.000000000  zlo zhi


Atoms 

     1   1 4.421057350 3.083297658 5.196884876
     2   1 6.128374510 4.836428958 5.006313467
     3   1 3.871625490 4.951053626 3.702096615
     4   1 3.892886952 5.212540886 6.297903385
     5   1 4.840866922 6.916702342 4.807329832
