ITEM: TIMESTEP
2
ITEM: NUMBER OF ATOMS
5
ITEM: BOX BOUNDS pp pp pp
0 10
0 10
0 10
ITEM: ATOMS id type x y z c_pea 
3 1 3.87162 4.95105 3.70209 -2.76121 
5 1 4.84087 6.91671 4.80733 -2.57481 
1 1 4.42106 3.0833 5.19689 -2.57481 
2 1 6.12838 4.83643 5.00631 -2.76121 
4 1 3.89288 5.21254 6.29791 -2.76121 
