/var/folders/35/zn93tsdx7p13vbrdj0l0gn9r0000gn/T/LAMMPS-tm23_kqy/data.lammps (written by ASE) 

5 	 atoms 
1  atom types
0.0 10.000000000  xlo xhi
0.0 10.000000000  ylo yhi
0.0 10.000000000  zlo zhi


Atoms 

     1   1 4.185692795 4.935667919 6.153465105
     2   1 6.626783632 4.814618572 5.927244299
     3   1 3.373216368 5.142469591 3.846534895
     4   1 5.479904881 6.299338095 4.344439875
     5   1 5.334343426 3.700661905 4.162834580
