ITEM: TIMESTEP
2
ITEM: NUMBER OF ATOMS
5
ITEM: BOX BOUNDS pp pp pp
0 10
0 10
0 10
ITEM: ATOMS id type x y z c_pea 
5 1 5.33433 3.70066 4.16283 -2.76121 
3 1 3.3732 5.14246 3.84653 -2.57482 
4 1 5.47993 6.29934 4.34445 -2.76121 
1 1 4.18569 4.93567 6.15346 -2.76121 
2 1 6.62679 4.81463 5.92725 -2.57482 
