/var/folders/35/zn93tsdx7p13vbrdj0l0gn9r0000gn/T/LAMMPS-gjw0ly4_/data.lammps (written by ASE) 

55 	 atoms 
1  atom types
0.0 20.000000000  xlo xhi
0.0 20.000000000  ylo yhi
0.0 20.000000000  zlo zhi


Atoms 

     1   1 7.636950000 13.993187909 7.933097273
     2   1 9.743320000 13.998087909 6.539747273
     3   1 11.968180000 13.523487909 7.617597273
     4   1 7.101990000 11.584387909 9.039787273
     5   1 6.214540000 11.394287909 11.569587273
     6   1 8.120860000 8.928647909 11.997187273
     7   1 11.823880000 11.311587909 10.551987273
     8   1 8.934710000 11.587187909 11.628487273
     9   1 14.528380000 10.039287909 10.508087273
    10   1 7.538060000 13.837687909 10.543187273
    11   1 9.755610000 12.633087909 9.166377273
    12   1 9.869680000 14.102087909 11.786787273
    13   1 9.827630000 15.147687909 9.120677273
    14   1 12.090080000 13.976587909 10.293387273
    15   1 13.830580000 12.072287909 8.846227273
    16   1 14.054980000 12.532287909 11.504787273
    17   1 9.376660000 6.804447909 13.438187273
    18   1 7.053060000 7.981467909 14.391787273
    19   1 5.471620000 8.863727909 12.458887273
    20   1 7.156530000 10.655987909 13.932087273
    21   1 10.801780000 9.708377909 12.473487273
    22   1 9.365540000 9.223337909 14.749587273
    23   1 11.780880000 7.901487909 14.130987273
    24   1 11.711480000 10.536287909 14.912787273
    25   1 13.423880000 10.315887909 12.936187273
    26   1 7.512590000 13.267787909 13.134087273
    27   1 9.539050000 11.934987909 14.248787273
    28   1 11.764680000 12.545287909 12.943787273
    29   1 8.366921455 7.403232091 7.070272727
    30   1 10.485411455 5.937732091 8.048992727
    31   1 12.771711455 7.099662091 7.626162727
    32   1 6.279531455 9.162152091 6.678832727
    33   1 10.895711455 7.850932091 6.001072727
    34   1 8.993701455 9.659112091 5.849062727
    35   1 11.928911455 10.379912091 6.585392727
    36   1 7.327301455 11.726612091 6.167962727
    37   1 9.561131455 11.629312091 7.680852727
    38   1 10.163431455 11.906312091 5.087212727
    39   1 6.972671455 5.315632091 10.670812727
    40   1 6.289401455 7.299442091 8.843752727
    41   1 7.950821455 5.107592091 8.352502727
    42   1 11.770311455 7.210662091 10.330612727
    43   1 9.757661455 4.852312091 10.442412727
    44   1 8.756991455 7.318232091 9.920502727
    45   1 12.475411455 4.863822091 9.716472727
    46   1 13.726211455 5.983652091 11.871812727
    47   1 14.440711455 6.805532091 9.550812727
    48   1 6.733681455 7.657352091 11.902212727
    49   1 5.595021455 11.293812091 8.137782727
    50   1 5.514041455 9.446202091 10.123612727
    51   1 7.810051455 9.832212091 8.611642727
    52   1 10.544411455 8.924022091 8.435472727
    53   1 13.445011455 9.366452091 8.823802727
    54   1 8.520471455 5.804942091 12.742212727
    55   1 11.219011455 5.517702091 12.549312727
