/tmp/LAMMPS-2r435bz_/data.lammps (written by ASE) 

55 	 atoms 
1  atom types
3.668894203471255 16.331105796528746  xlo xhi
5.278439999999999 14.72156  ylo yhi
4.675581934870269 15.32441806512973  zlo zhi


Atoms 

     1   1 7.209595797 14.094260000 9.955021935
     2   1 6.035365797 11.758060000 9.717721935
     3   1 10.021685797 11.137460000 7.377551935
     4   1 8.415915797 10.843260000 5.436411935
     5   1 8.914135797 11.890560000 9.770421935
     6   1 13.139205797 10.136160000 5.139721935
     7   1 9.988445797 13.511360000 6.267371935
     8   1 7.646225797 12.779360000 7.469521935
     9   1 10.882205797 11.639560000 4.675581935
    10   1 7.291265797 12.351660000 11.987721935
    11   1 9.166035797 14.721560000 8.460751935
    12   1 12.227405797 12.954660000 11.418321935
    13   1 9.692885797 14.111560000 11.038321935
    14   1 9.923765797 11.869560000 12.477021935
    15   1 11.242705797 13.201160000 8.878281935
    16   1 12.559905797 12.275760000 6.630061935
    17   1 14.870605797 10.544560000 7.159201935
    18   1 10.270455797 10.376460000 14.790021935
    19   1 12.361905797 10.838960000 13.240021935
    20   1 11.496305797 10.647260000 10.335521935
    21   1 16.331105797 9.245550000 11.262721935
    22   1 13.663805797 12.027860000 9.132661935
    23   1 14.709705797 9.009190000 13.403321935
    24   1 14.389205797 11.105760000 11.581321935
    25   1 13.990605797 9.224500000 9.608821935
    26   1 16.123005797 8.324850000 8.594971935
    27   1 16.157505797 10.969660000 9.397611935
    28   1 12.212305797 9.702670000 7.709081935
    29   1 7.571835797 7.031700000 11.001021935
    30   1 7.789265797 8.267080000 13.470021935
    31   1 6.337455797 8.308520000 9.056861935
    32   1 6.688445797 9.612700000 11.334721935
    33   1 8.982005797 9.014480000 9.815621935
    34   1 4.886795797 10.640560000 9.279131935
    35   1 12.196005797 7.150090000 13.311421935
    36   1 9.132585797 9.981460000 15.199021935
    37   1 10.120225797 7.677630000 14.785021935
    38   1 9.679625797 6.500370000 12.414121935
    39   1 10.014975797 9.402180000 12.543121935
    40   1 11.755005797 5.278440000 11.243221935
    41   1 13.943005797 6.835750000 11.144721935
    42   1 11.468005797 7.896520000 10.771821935
    43   1 12.552205797 6.189630000 8.868571935
    44   1 8.038035797 8.773870000 4.949391935
    45   1 13.015905797 7.686850000 6.499991935
    46   1 9.717535797 6.209690000 9.555521935
    47   1 10.571725797 8.152350000 5.446911935
    48   1 10.974905797 8.227300000 8.079031935
    49   1 8.355785797 7.533730000 7.430691935
    50   1 9.125075797 10.111460000 7.040831935
    51   1 6.315175797 9.506260000 6.801941935
    52   1 9.457715359 8.875822099 15.324418065
    53   1 3.668894203 7.280880106 8.674847181
    54   1 12.484028465 5.520088043 12.053800519
    55   1 3.926822059 9.260267918 5.202425032
