ITEM: TIMESTEP
36
ITEM: NUMBER OF ATOMS
5
ITEM: BOX BOUNDS pp pp pp
0 10
0 10
0 10
ITEM: ATOMS id type x y z c_pea 
5 1 3.51696 3.80444 4.43671 -2.57481 
3 1 5.90345 4.20016 4.85239 -2.76121 
1 1 4.38831 5.97016 3.6783 -2.76121 
4 1 4.03864 5.42433 6.20552 -2.76121 
2 1 6.03663 6.59198 5.38743 -2.57482 
