ITEM: TIMESTEP
116
ITEM: NUMBER OF ATOMS
55
ITEM: BOX BOUNDS pp pp pp
0 20
0 20
0 20
ITEM: ATOMS id type x y z c_pea 
29 1 7.84084 6.30942 7.44264 -3.42157 
30 1 10.4779 7.16756 7.09437 -3.57744 
33 1 8.46226 7.6747 5.23916 -3.16609 
38 1 12.845 7.89024 6.15956 -3.16235 
31 1 6.37448 8.48302 6.67583 -3.29589 
50 1 6.61675 11.3086 6.94689 -3.36261 
32 1 8.24667 10.3548 5.12305 -3.37886 
34 1 10.7142 9.10861 5.13697 -3.42291 
35 1 10.6232 11.7373 5.50076 -3.52247 
36 1 11.5258 10.0738 7.643 -3.84814 
37 1 8.78726 9.22312 7.5125 -3.83772 
55 1 9.14271 11.8795 7.85374 -3.77869 
39 1 13.184 10.4806 5.67092 -3.27467 
40 1 14.0836 11.6838 7.96693 -3.3605 
41 1 10.4127 14.1929 6.73355 -3.41927 
42 1 8.19465 13.0362 5.6203 -3.17416 
43 1 12.7722 13.0913 6.28831 -3.22839 
27 1 6.84319 6.6725 11.913 -3.44214 
44 1 5.84365 7.06508 9.1831 -3.19167 
45 1 7.47755 5.06692 9.83281 -3.17006 
46 1 9.2868 5.29969 11.7952 -3.39381 
47 1 10.0921 5.63173 9.22571 -3.44798 
48 1 11.8204 6.23028 11.2284 -3.54223 
52 1 8.33008 7.65542 9.72098 -3.744 
49 1 12.6805 6.63922 8.59897 -3.3463 
18 1 13.865 7.9555 10.7021 -3.41755 
51 1 6.30517 9.66374 9.0473 -3.47285 
14 1 6.73928 9.38672 11.6665 -3.48271 
16 1 11.0043 11.2851 11.2837 -3.74101 
21 1 8.76819 10.3907 10.2018 -3.8651 
53 1 11.0796 8.47918 9.72886 -3.9298 
25 1 13.3769 10.5451 10.3588 -3.67158 
54 1 13.9757 9.00014 8.17873 -3.37618 
19 1 6.79097 12.286 9.44373 -3.36304 
28 1 7.99112 14.2474 8.01565 -3.23843 
9 1 11.708 14.1785 11.1091 -3.42021 
12 1 9.1636 13.2986 10.4053 -3.652 
23 1 11.5744 12.5528 8.85608 -3.83201 
24 1 10.3321 15.2474 9.07356 -3.17764 
15 1 13.9672 13.1858 10.1793 -3.22028 
22 1 12.8283 14.7627 8.37425 -3.17855 
26 1 9.27973 7.96949 12.176 -3.78889 
10 1 11.144 6.41933 13.8098 -3.42246 
20 1 8.49285 6.24404 14.1541 -3.15179 
17 1 13.6988 7.06579 13.1539 -3.15001 
11 1 7.32212 8.50685 14.0565 -3.15642 
1 1 9.96301 8.56243 14.8532 -3.41341 
2 1 11.5742 10.9006 14.1921 -3.42331 
7 1 9.04397 10.4982 13.2232 -3.59089 
13 1 11.7552 8.85682 12.4028 -3.7425 
4 1 12.6274 8.54805 14.9671 -3.15725 
8 1 14.0554 9.84663 13.0015 -3.29043 
6 1 7.44502 12.068 12.0009 -3.18978 
5 1 10.1197 12.9984 13.0159 -3.25492 
3 1 13.073 12.3544 12.58 -3.3237 
