/var/folders/35/zn93tsdx7p13vbrdj0l0gn9r0000gn/T/LAMMPS-81kknnem/data.lammps (written by ASE) 

55 	 atoms 
1  atom types
0.0 20.000000000  xlo xhi
0.0 20.000000000  ylo yhi
0.0 20.000000000  zlo zhi


Atoms 

     1   1 7.304483584 7.914481807 9.974615878
     2   1 17.062799423 5.268448124 2.341344122
     3   1 11.528153584 8.392481807 8.618095878
     4   1 7.491303584 10.484471807 9.379785878
     5   1 10.294353584 11.049621807 8.867605878
     6   1 8.906553584 8.922901807 7.735645878
     7   1 11.044453584 9.972331807 6.450595878
     8   1 8.905553584 11.545521807 6.762695878
     9   1 11.517053584 12.498821807 7.014335878
    10   1 13.061253584 10.531921807 8.238275878
    11   1 7.943633584 13.004421807 8.743905878
    12   1 10.353553584 13.833821807 9.030715878
    13   1 12.837853584 12.929421807 9.427655878
    14   1 6.486103584 7.297691807 12.400755878
    15   1 8.179043584 5.380471807 13.812555878
    16   1 9.009093584 7.894071807 13.233755878
    17   1 10.773653584 5.919741807 13.369655878
    18   1 11.409453584 6.745611807 10.860665878
    19   1 8.800723584 6.011841807 11.323435878
    20   1 5.400483584 9.679771807 11.184355878
    21   1 5.049643584 9.018701807 13.866955878
    22   1 5.652763584 11.614321807 13.359055878
    23   1 6.535543584 12.409821807 10.997185878
    24   1 7.650173584 10.006011807 12.254755878
    25   1 8.862503584 12.038321807 13.939655878
    26   1 9.744353584 8.910271807 10.675975878
    27   1 9.278463584 11.997521807 11.215655878
    28   1 11.500453584 11.479321807 13.409255878
    29   1 11.774853584 8.589401807 12.824355878
    30   1 11.988453584 10.791021807 10.900135878
    31   1 14.022753584 10.188101807 12.801255878
    32   1 13.431253584 8.623531807 10.519885878
    33   1 2.937200577 14.731551876 16.919694114
    34   1 7.055053584 13.894021807 13.199555878
    35   1 9.531713584 14.683021807 13.374355878
    36   1 11.270853584 13.784121807 11.579255878
    37   1 8.461473584 14.502021807 10.938095878
    38   1 13.671353584 12.818221807 12.146955878
    39   1 13.690886947 12.536379372 16.407810548
    40   1 9.467073584 6.872481807 15.776955878
    41   1 11.901453584 7.396951807 15.283355878
    42   1 6.524013584 10.856221807 17.658655878
    43   1 5.405903584 8.718301807 16.677055878
    44   1 4.732383584 11.046321807 15.753255878
    45   1 7.266423584 10.009951807 15.058055878
    46   1 10.926053584 9.118111807 17.229155878
    47   1 8.184523584 8.698451807 17.231955878
    48   1 9.025093584 11.299121807 16.932955878
    49   1 10.071153584 9.632841807 14.926055878
    50   1 11.497853584 11.866421807 16.157255878
    51   1 12.903853584 9.763481807 15.279355878
    52   1 13.836653584 12.172321807 14.712955878
    53   1 6.904283584 12.740521807 15.709655878
    54   1 9.540433584 13.735621807 15.837055878
    55   1 11.883553584 13.936021807 14.330655878
