/tmp/LAMMPS-enqaxey4/data.lammps (written by ASE) 

55 	 atoms 
1  atom types
5.3044945197771565 14.695505480222844  xlo xhi
5.232185000000001 14.767814999999999  ylo yhi
4.844695 15.155305  zlo zhi


Atoms 

     1   1 11.992344520 8.026415000 12.570405000
     2   1 13.728344520 9.743255000 11.444105000
     3   1 9.486644520 6.741965000 12.760805000
     4   1 13.535944520 12.169915000 12.176205000
     5   1 11.518944520 5.759395000 11.205505000
     6   1 14.087644520 11.834115000 9.558695000
     7   1 14.655044520 9.248605000 8.945345000
     8   1 13.828444520 10.716015000 7.072475000
     9   1 12.003344520 12.522815000 7.727015000
    10   1 11.663044520 12.952315000 10.413205000
    11   1 12.881944520 7.600285000 9.952265000
    12   1 12.015644520 10.194395000 9.220575000
    13   1 10.970144520 10.532015000 11.756005000
    14   1 10.101444520 8.124595000 10.452705000
    15   1 12.366444520 10.485315000 13.919105000
    16   1 7.095894520 11.828315000 13.734705000
    17   1 9.835444520 14.767815000 11.443105000
    18   1 8.887274520 12.323215000 11.685005000
    19   1 9.736744520 11.372915000 14.320205000
    20   1 7.052644520 7.582075000 13.737905000
    21   1 8.345004520 9.571185000 12.407405000
    22   1 11.314744520 13.115615000 13.122805000
    23   1 7.791324520 9.647795000 15.155305000
    24   1 10.161944520 8.772245000 14.313605000
    25   1 8.905354520 13.951415000 13.877705000
    26   1 7.810364520 10.076065000 10.901405000
    27   1 5.942674520 7.041235000 10.651505000
    28   1 7.898144520 5.263335000 11.325805000
    29   1 6.890604520 7.923755000 12.807805000
    30   1 7.687304520 13.504515000 9.943605000
    31   1 5.969474520 12.266415000 11.777705000
    32   1 5.304494520 9.611175000 11.203205000
    33   1 10.020554520 14.422315000 8.517355000
    34   1 8.037394520 8.451485000 6.164795000
    35   1 8.736714520 10.463215000 8.214335000
    36   1 12.363144520 7.792825000 7.468505000
    37   1 9.636104520 7.781885000 8.128525000
    38   1 10.580944520 12.252515000 6.968615000
    39   1 13.155744520 10.616515000 6.606515000
    40   1 8.526754520 11.141815000 5.463775000
    41   1 13.236244520 6.282075000 5.279345000
    42   1 7.929334520 12.879515000 7.398915000
    43   1 10.601844520 9.661345000 6.072935000
    44   1 8.878734520 7.594005000 10.850405000
    45   1 10.614444520 7.135045000 5.305915000
    46   1 11.470744520 5.251195000 7.087925000
    47   1 6.690534520 8.706585000 8.708785000
    48   1 6.144364520 11.419315000 9.181805000
    49   1 7.394904520 6.124415000 8.706245000
    50   1 9.831664520 5.232185000 9.246805000
    51   1 8.844304520 5.736005000 6.586225000
    52   1 12.865944520 8.727735000 4.844695000
    53   1 6.404494520 10.565115000 6.719895000
    54   1 8.030175692 14.606822003 13.225693370
    55   1 14.695505480 10.827623513 8.360013042
