/tmp/LAMMPS-c2tz414z/data.lammps (written by ASE) 

55 	 atoms 
1  atom types
4.218060000000001 15.781939999999999  xlo xhi
5.165420000000001 14.834579999999999  ylo yhi
5.202100000000001 14.797899999999998  zlo zhi


Atoms 

     1   1 6.142660000 9.785280000 7.350430000
     2   1 8.325150000 10.642580000 5.880460000
     3   1 11.357540000 7.901590000 7.861830000
     4   1 10.967640000 10.672380000 7.591540000
     5   1 12.723840000 9.272260000 5.760030000
     6   1 9.445040000 6.332980000 6.165900000
     7   1 10.932740000 11.535080000 5.202100000
     8   1 13.748740000 6.978010000 7.639550000
     9   1 10.128940000 8.803690000 5.308570000
    10   1 8.754240000 8.517870000 7.748080000
    11   1 12.092240000 6.136580000 9.810900000
    12   1 13.327640000 11.707280000 6.421720000
    13   1 11.543040000 7.513470000 12.114400000
    14   1 10.059340000 5.384700000 11.365000000
    15   1 13.895640000 7.923740000 10.361300000
    16   1 9.569740000 8.065230000 10.396500000
    17   1 7.030810000 6.449010000 7.961590000
    18   1 7.544790000 6.072880000 10.607600000
    19   1 4.978010000 6.952770000 9.918600000
    20   1 11.734240000 5.165420000 7.334870000
    21   1 6.091690000 7.367810000 12.323300000
    22   1 9.553540000 5.760440000 8.766600000
    23   1 6.881510000 8.770980000 9.871700000
    24   1 4.218060000 9.372540000 9.157300000
    25   1 7.261460000 7.965260000 5.669520000
    26   1 4.863090000 7.561620000 7.314180000
    27   1 12.025740000 6.788580000 5.411290000
    28   1 11.426440000 10.946180000 9.853700000
    29   1 15.781940000 10.591480000 10.205100000
    30   1 15.281740000 8.701090000 12.101300000
    31   1 10.703440000 12.080180000 12.437700000
    32   1 15.127640000 12.996480000 11.459600000
    33   1 12.529640000 13.552180000 11.220700000
    34   1 13.726440000 9.835380000 14.170700000
    35   1 13.489040000 10.738980000 11.487600000
    36   1 15.758540000 11.133880000 13.030100000
    37   1 9.892920000 14.442580000 11.053300000
    38   1 13.342840000 12.427080000 13.564700000
    39   1 8.741110000 10.101480000 12.116400000
    40   1 7.061570000 9.252920000 14.238300000
    41   1 13.239840000 7.339340000 13.314900000
    42   1 8.708340000 11.390380000 14.459200000
    43   1 8.187430000 7.277710000 12.952400000
    44   1 9.684630000 8.873420000 14.601200000
    45   1 8.079460000 12.950680000 12.354200000
    46   1 11.449640000 9.337430000 12.649200000
    47   1 11.372440000 10.990480000 14.797900000
    48   1 6.253690000 11.225980000 12.893100000
    49   1 9.075890000 12.184480000 9.824200000
    50   1 8.965840000 14.834580000 8.592870000
    51   1 7.109940000 14.028280000 10.186100000
    52   1 11.316540000 13.607680000 8.841690000
    53   1 9.795200000 13.272880000 6.582510000
    54   1 6.538330000 11.346380000 10.236700000
    55   1 6.359510000 8.880800000 11.486600000
