ITEM: TIMESTEP
12
ITEM: NUMBER OF ATOMS
5
ITEM: BOX BOUNDS pp pp pp
0 10
0 10
0 10
ITEM: ATOMS id type x y z c_pea 
5 1 3.94067 5.22005 3.94551 -2.76121 
4 1 6.336 5.71469 3.73966 -2.57482 
3 1 3.67864 4.44687 6.26036 -2.57481 
1 1 5.76098 3.78415 5.1421 -2.76122 
2 1 5.32057 6.23771 5.91234 -2.7612 
