/var/folders/35/zn93tsdx7p13vbrdj0l0gn9r0000gn/T/LAMMPS-46_gwd70/data.lammps (written by ASE) 

5 	 atoms 
1  atom types
0.0 10.000000000  xlo xhi
0.0 10.000000000  ylo yhi
0.0 10.000000000  zlo zhi


Atoms 

     1   1 3.831495840 5.537676938 4.373231278
     2   1 6.168504160 5.338192993 5.515961802
     3   1 4.079871026 4.922263057 6.736329465
     4   1 5.738668295 4.462323062 3.263670535
     5   1 3.831495840 5.537676938 4.373231278
