ITEM: TIMESTEP
238
ITEM: NUMBER OF ATOMS
55
ITEM: BOX BOUNDS pp pp pp
0 20
0 20
0 20
ITEM: ATOMS id type x y z c_pea 
42 1 7.09162 4.94929 7.91009 -2.92645 
29 1 7.94241 6.90389 6.34519 -3.50596 
28 1 10.7416 7.10827 5.33194 -3.10508 
30 1 9.8261 5.16773 6.96413 -3.28663 
36 1 10.415 7.77865 7.77947 -3.67285 
31 1 12.4611 6.25763 7.25801 -3.18349 
32 1 7.47211 11.2816 4.89763 -3.19994 
33 1 6.25607 9.26058 6.20476 -3.27414 
46 1 6.52581 11.7834 7.32768 -3.4474 
34 1 9.00965 9.13733 5.33173 -3.53234 
35 1 9.24217 11.4455 7.05347 -3.78658 
37 1 11.4955 9.87513 6.35954 -3.58203 
38 1 10.1191 11.4039 4.44458 -3.16102 
39 1 8.81337 13.5202 5.49913 -3.22217 
40 1 11.5597 12.6761 6.27713 -3.43225 
54 1 10.3119 14.8612 7.1199 -3.05594 
17 1 6.43839 5.9709 10.6204 -3.2834 
41 1 6.02187 7.35334 8.31885 -3.53191 
13 1 11.6069 5.51463 11.8455 -3.15985 
24 1 10.9249 7.75162 10.5858 -3.90778 
43 1 8.6692 6.36926 9.24198 -3.62865 
44 1 11.1105 5.21578 9.28729 -3.33222 
6 1 8.87915 6.41383 11.9881 -3.5641 
45 1 13.3387 6.52333 9.89782 -3.3506 
15 1 4.8646 8.09608 10.6599 -3.16318 
22 1 7.66287 8.55284 10.6274 -3.84087 
16 1 5.97084 10.3884 11.7088 -3.4555 
47 1 5.62033 10.0357 9.03259 -3.52098 
26 1 8.18279 11.2751 9.87429 -3.8469 
48 1 8.08274 9.16215 8.008 -3.76958 
49 1 10.5609 10.1857 9.15934 -3.85078 
18 1 14.7333 8.87212 10.4215 -3.21573 
19 1 12.3964 10.1288 11.0973 -3.82054 
25 1 14.6253 11.5382 10.6614 -3.17464 
50 1 12.8928 11.4923 8.4649 -3.60423 
51 1 12.9227 8.74035 8.4849 -3.57732 
23 1 6.10329 12.6855 10.0266 -3.22251 
52 1 7.97071 13.8133 8.11393 -3.41522 
27 1 10.4295 12.0882 11.5427 -3.68719 
20 1 8.46198 13.9061 10.6781 -3.18195 
53 1 10.4861 13.0334 8.98293 -3.7004 
21 1 12.707 13.2665 10.551 -3.28471 
55 1 12.727 14.1812 8.07342 -2.99325 
3 1 6.35316 7.73316 12.7819 -3.31406 
4 1 10.8791 7.33803 13.6225 -3.4347 
1 1 8.33993 7.415 14.3776 -3.12941 
8 1 13.2173 7.71247 12.3212 -3.47216 
7 1 7.5207 9.93319 13.9667 -3.35365 
14 1 9.5957 9.48563 12.3572 -3.93477 
2 1 9.81889 9.30367 15.2513 -3.13947 
10 1 10.0149 11.5965 14.0876 -3.26508 
5 1 12.0491 9.77166 13.8566 -3.48318 
11 1 14.5481 10.0486 12.8241 -3.15812 
12 1 7.82852 12.1133 12.485 -3.39438 
9 1 12.8253 12.1205 12.9276 -3.26896 
