ITEM: TIMESTEP
166
ITEM: NUMBER OF ATOMS
55
ITEM: BOX BOUNDS ss ss ss
5.5076 14.2916
4.69926 14.5751
4.76716 15.0434
ITEM: ATOMS id type x y z c_pea 
3 1 9.79881 8.34374 7.30178 -3.93371 
6 1 7.25817 7.44643 6.79062 -3.2372 
18 1 8.84452 5.53308 7.54564 -3.28352 
27 1 8.78937 8.27131 4.76815 -3.19555 
28 1 7.12568 6.46568 9.31794 -3.34225 
30 1 7.64925 9.21022 8.96701 -3.77387 
49 1 9.7033 7.28299 9.88186 -3.7639 
1 1 11.3427 5.82699 8.31367 -3.39329 
11 1 11.4336 8.77815 4.93845 -3.32012 
13 1 13.8181 9.48474 6.40071 -3.11699 
32 1 12.3473 8.35266 8.67516 -3.6723 
50 1 12.7324 7.09634 6.41065 -3.13679 
53 1 10.3849 6.32671 5.6056 -3.21022 
17 1 9.61237 10.825 5.15193 -3.3772 
24 1 7.30271 13.8616 8.68776 -3.2757 
29 1 9.43864 14.5741 7.48203 -3.16429 
31 1 6.28496 11.4738 8.2713 -3.40047 
40 1 7.8658 12.8055 6.15527 -3.24708 
48 1 9.19937 11.6611 8.00763 -3.89364 
54 1 7.44335 10.0598 6.33112 -3.41573 
47 1 14.1258 10.5948 8.809 -3.41965 
19 1 11.5271 10.4156 7.07632 -3.63653 
26 1 12.0273 14.4353 8.13103 -3.32304 
33 1 14.2906 13.3403 9.09542 -3.16091 
41 1 13.4441 12.3041 6.83921 -3.29986 
44 1 11.8462 12.012 9.22537 -3.80567 
52 1 10.8923 12.9402 6.15756 -3.37187 
5 1 7.63489 6.91002 13.8876 -3.22204 
9 1 6.46094 9.43831 13.646 -3.31028 
22 1 9.31081 4.7002 10.0048 -3.19152 
34 1 7.34355 5.3642 11.6635 -3.05107 
37 1 9.77832 5.92956 12.3802 -3.54465 
45 1 7.68602 8.03612 11.5459 -3.67804 
55 1 8.89854 9.0297 14.9328 -3.46046 
7 1 13.5409 8.16883 13.0254 -3.14001 
10 1 11.7398 8.70347 15.0424 -3.30834 
21 1 10.0026 6.66701 14.9925 -3.12856 
38 1 12.7018 9.62713 10.986 -3.63304 
39 1 12.1272 6.78115 10.9955 -3.49024 
43 1 10.6767 8.53167 12.6423 -3.95994 
46 1 12.1252 6.2323 13.6719 -3.11877 
4 1 9.88405 13.8497 10.0239 -3.54107 
8 1 6.36864 12.0742 12.7832 -3.29415 
51 1 6.01013 10.177 10.9499 -3.42316 
2 1 5.50859 12.7837 10.4022 -3.00006 
15 1 7.83399 11.5115 14.8578 -3.15945 
25 1 8.67782 10.3753 12.4962 -3.73377 
36 1 8.88286 13.0813 12.8766 -3.28124 
42 1 8.0437 11.9475 10.4643 -3.71589 
12 1 12.4123 14.1729 10.8159 -3.17286 
23 1 10.1441 9.92861 10.0129 -3.90762 
35 1 10.4563 11.1721 14.4489 -3.39766 
14 1 11.0621 11.9246 11.8635 -3.75964 
16 1 13.844 11.9997 11.3081 -3.30208 
20 1 12.8481 10.6401 13.5052 -3.2838 
