ITEM: TIMESTEP
134
ITEM: NUMBER OF ATOMS
55
ITEM: BOX BOUNDS pp pp pp
0 20
0 20
0 20
ITEM: ATOMS id type x y z c_pea 
31 1 6.8291 7.95827 7.45348 -3.30442 
32 1 10.7485 6.02125 7.48814 -3.39412 
26 1 10.6124 7.82887 5.5497 -3.37281 
35 1 13.099 7.17647 6.67136 -3.36028 
23 1 7.9888 10.7517 7.87469 -3.72565 
39 1 5.68405 10.103 6.54874 -3.13846 
21 1 9.71752 11.9613 5.87374 -3.53631 
28 1 10.6326 10.1348 4.22708 -3.15521 
29 1 8.3504 9.48261 5.57133 -3.4971 
44 1 11.3057 9.98162 7.00544 -3.78733 
27 1 12.9376 9.18666 4.91657 -3.1697 
25 1 12.4498 11.7901 5.47317 -3.24563 
43 1 14.0241 9.57065 7.30802 -3.38415 
12 1 7.04504 12.0912 5.71868 -3.14388 
6 1 8.38474 13.5483 7.56926 -3.42072 
10 1 11.2205 13.7119 7.2398 -3.34865 
45 1 7.01834 7.51478 10.205 -3.54376 
30 1 8.3059 5.84969 8.50374 -3.31496 
33 1 10.5544 4.79049 9.84065 -3.35451 
34 1 9.7877 7.30902 10.5503 -3.84586 
46 1 8.08974 5.11834 11.01 -3.15467 
36 1 13.0059 5.45246 8.72935 -3.16458 
38 1 14.4526 7.57576 9.39267 -3.22466 
50 1 12.4285 6.38088 11.1145 -3.48755 
22 1 5.69048 11.5996 11.0131 -3.12126 
40 1 5.79055 9.719 9.27263 -3.45953 
37 1 11.9919 8.10859 8.93771 -3.7806 
41 1 9.32925 8.37708 8.06677 -3.78337 
51 1 8.38876 9.96979 10.4875 -3.90346 
18 1 10.3396 11.6909 8.90408 -3.91081 
53 1 11.1758 9.73964 10.9417 -3.87361 
42 1 13.8954 10.1877 9.89787 -3.57086 
55 1 13.4899 8.65335 11.967 -3.37148 
8 1 7.81953 12.6773 10.0508 -3.63439 
15 1 5.83364 12.2739 8.20901 -3.29538 
2 1 8.43972 14.5139 11.828 -3.15352 
3 1 10.0705 14.3104 9.62634 -3.51374 
13 1 9.92709 12.1736 11.9197 -3.8542 
1 1 11.2553 14.7991 11.9073 -3.4197 
20 1 13.1199 12.0712 8.05485 -3.57851 
19 1 12.2817 12.3284 10.7772 -3.69289 
4 1 12.7959 14.5143 9.43099 -3.31489 
5 1 13.8727 14.1496 11.9793 -3.1558 
11 1 14.8568 12.7479 10.0513 -3.15209 
47 1 10.2296 5.34443 12.4544 -3.15499 
48 1 8.18083 7.20329 12.7035 -3.35272 
49 1 11.0455 7.78023 13.0299 -3.45055 
52 1 6.49175 9.38922 12.1922 -3.28345 
14 1 7.53289 11.987 12.9116 -3.44708 
17 1 11.8795 10.347 13.473 -3.49017 
24 1 9.82624 11.6613 14.6522 -3.14229 
54 1 9.10553 9.66571 13.1062 -3.58369 
16 1 14.1515 11.395 12.3938 -3.33381 
7 1 9.62562 14.0566 13.9754 -3.08778 
9 1 12.1181 12.9613 13.65 -3.42881 
