/var/folders/35/zn93tsdx7p13vbrdj0l0gn9r0000gn/T/LAMMPS-mplsplop/data.lammps (written by ASE) 

55 	 atoms 
1  atom types
0.0 20.000000000  xlo xhi
0.0 20.000000000  ylo yhi
0.0 20.000000000  zlo zhi


Atoms 

     1   1 5.991585000 11.198570000 7.765800000
     2   1 6.717045000 9.224640000 6.314670000
     3   1 8.719265000 10.953570000 7.587640000
     4   1 9.100845000 8.852010000 5.436920000
     5   1 10.564885000 11.062970000 5.420530000
     6   1 9.833885000 8.446300000 8.044360000
     7   1 11.682285000 10.796170000 7.965470000
     8   1 11.825885000 8.583880000 6.174980000
     9   1 13.232885000 10.633270000 5.585590000
    10   1 7.120775000 13.408770000 7.015280000
    11   1 7.775385000 11.461270000 5.264670000
    12   1 9.613785000 13.408270000 6.438910000
    13   1 11.280185000 15.089670000 7.861340000
    14   1 12.253185000 13.036070000 6.465700000
    15   1 14.437485000 11.853770000 7.396090000
    16   1 7.114195000 6.211570000 9.785360000
    17   1 9.587985000 5.637100000 8.633260000
    18   1 9.050055000 4.910330000 11.190430000
    19   1 11.442685000 5.860210000 10.591630000
    20   1 5.682015000 8.072750000 11.249130000
    21   1 7.197085000 8.858640000 9.007580000
    22   1 5.993145000 10.710870000 10.451930000
    23   1 9.245835000 10.516370000 10.260430000
    24   1 9.247115000 7.601970000 10.636330000
    25   1 11.867485000 8.498240000 9.904680000
    26   1 14.211085000 9.125850000 11.046530000
    27   1 12.241085000 11.123470000 10.725830000
    28   1 13.819585000 9.280710000 8.158590000
    29   1 7.511585000 12.690370000 9.567540000
    30   1 8.744245000 14.994670000 8.597690000
    31   1 11.016985000 14.989070000 10.508030000
    32   1 10.280085000 12.847470000 9.141370000
    33   1 8.551905000 14.432270000 11.196730000
    34   1 10.195085000 12.560970000 11.995330000
    35   1 14.784585000 11.395270000 9.841550000
    36   1 12.790285000 13.501470000 11.838630000
    37   1 12.990385000 13.378570000 9.141570000
    38   1 10.184485000 6.653240000 13.060030000
    39   1 7.486375000 6.529410000 12.573730000
    40   1 5.966815000 8.135430000 14.003830000
    41   1 6.981755000 10.482270000 14.704030000
    42   1 5.215415000 10.338270000 12.857130000
    43   1 7.805735000 9.354670000 12.276730000
    44   1 9.471685000 10.881370000 14.133030000
    45   1 8.643275000 8.267400000 14.580930000
    46   1 11.286485000 8.720550000 14.735330000
    47   1 10.777785000 9.367770000 12.313430000
    48   1 12.651685000 7.339370000 12.425230000
    49   1 13.580385000 9.396970000 13.634430000
    50   1 7.515155000 12.044970000 12.359030000
    51   1 12.065385000 11.491670000 13.660330000
    52   1 14.454085000 11.533070000 12.416530000
    53   1 8.015808275 7.335975335 8.018780000
    54   1 9.898167875 6.945820311 6.135610000
    55   1 12.071698850 5.760134354 7.139960000
