ITEM: TIMESTEP
40
ITEM: NUMBER OF ATOMS
55
ITEM: BOX BOUNDS pp pp pp
0 20
0 20
0 20
ITEM: ATOMS id type x y z c_pea 
53 1 7.70621 6.92672 7.14435 -3.33328 
54 1 10.1334 6.46685 6.12602 -3.16252 
55 1 12.054 6.6662 7.99926 -3.29743 
1 1 5.98424 11.2203 7.78991 -3.26624 
2 1 6.69311 9.24636 6.33015 -3.19172 
11 1 7.755 11.481 5.27996 -3.22724 
3 1 8.70925 10.9643 7.5969 -3.85729 
4 1 9.07077 8.86591 5.43874 -3.41775 
5 1 10.5436 11.0706 5.4194 -3.48165 
7 1 11.6729 10.7944 7.95734 -3.91096 
8 1 11.7989 8.58505 6.1628 -3.45184 
9 1 13.2109 10.63 5.56946 -3.11118 
15 1 14.4306 11.8414 7.37627 -3.12795 
10 1 7.1178 13.4277 7.03754 -3.16515 
12 1 9.60801 13.4173 6.44896 -3.47621 
13 1 11.2888 15.0891 7.86508 -3.17136 
14 1 12.246 13.0347 6.45892 -3.3931 
16 1 7.09588 6.22381 9.79234 -3.34218 
17 1 9.56065 5.64153 8.62485 -3.46905 
18 1 9.03375 4.9112 11.1833 -3.15609 
19 1 11.4271 5.85209 10.5732 -3.34441 
24 1 9.2395 7.60336 10.6342 -3.85742 
20 1 5.68112 8.08805 11.2689 -3.35682 
21 1 7.18601 8.87165 9.01929 -3.74601 
22 1 6.00066 10.7262 10.4753 -3.39874 
6 1 9.81549 8.45132 8.04124 -3.85685 
23 1 9.24744 10.5196 10.2662 -3.95281 
25 1 11.86 8.49002 9.88929 -3.73601 
26 1 14.2128 9.1061 11.0199 -3.3612 
27 1 12.2501 11.1117 10.7145 -3.86832 
28 1 13.8063 9.27114 8.13663 -3.4381 
35 1 14.7899 11.3787 9.81975 -3.24124 
29 1 7.51904 12.7032 9.58609 -3.60013 
30 1 8.75704 15.0031 8.61508 -3.29682 
31 1 11.0429 14.9826 10.5137 -3.27659 
32 1 10.2861 12.8484 9.14689 -3.83042 
33 1 8.57925 14.4346 11.2141 -3.12599 
36 1 12.8187 13.4833 11.8296 -3.25578 
37 1 12.9988 13.3682 9.13105 -3.56991 
39 1 7.4855 6.5336 12.5798 -3.43863 
38 1 10.1867 6.64535 13.0503 -3.48544 
48 1 12.6535 7.3219 12.4022 -3.3115 
40 1 5.98153 8.14342 14.0222 -3.15498 
41 1 7.01121 10.4841 14.7219 -3.14158 
42 1 5.23439 10.3523 12.8841 -3.12444 
43 1 7.81642 9.35751 12.2883 -3.81346 
44 1 9.49962 10.8731 14.1377 -3.45244 
45 1 8.66174 8.26176 14.5852 -3.40166 
46 1 11.3079 8.70342 14.7237 -3.22206 
47 1 10.7881 9.35868 12.3062 -3.8223 
49 1 13.5996 9.37026 13.613 -3.16647 
51 1 12.0937 11.4719 13.6514 -3.41029 
52 1 14.4755 11.5061 12.3966 -3.17331 
50 1 7.53919 12.0493 12.3766 -3.54397 
34 1 10.2194 12.5554 12.0007 -3.67146 
