ITEM: TIMESTEP
20
ITEM: NUMBER OF ATOMS
55
ITEM: BOX BOUNDS pp pp pp
0 20
0 20
0 20
ITEM: ATOMS id type x y z c_pea 
1 1 10.6172 7.63834 7.9938 -3.88603 
53 1 10.6977 5.24727 6.55949 -3.16091 
54 1 8.46182 6.79022 6.43526 -3.41855 
55 1 11.0948 7.51941 5.31867 -3.16408 
2 1 12.9337 6.62605 7.00463 -3.26714 
3 1 7.6642 11.5185 5.75748 -3.26648 
4 1 6.58425 8.94594 6.43394 -3.27653 
5 1 9.14636 9.2102 5.69555 -3.48196 
6 1 9.53585 11.1464 7.55964 -3.79239 
7 1 11.8509 9.81291 6.70835 -3.63407 
8 1 10.3753 11.4185 4.96096 -3.16541 
9 1 9.40464 13.5906 6.07024 -3.18187 
10 1 11.7858 12.7702 6.81789 -3.44186 
11 1 7.51372 5.31664 10.7711 -3.1522 
12 1 6.68957 6.61916 8.44598 -3.35356 
22 1 6.47348 7.73845 10.9057 -3.43395 
13 1 9.10079 5.41139 8.72844 -3.48403 
14 1 9.21334 7.60803 10.6192 -3.85652 
15 1 10.2386 5.17799 11.3093 -3.43624 
16 1 11.7644 5.13925 9.07455 -3.44337 
17 1 11.9792 7.46326 10.5741 -3.79595 
18 1 13.0554 5.55249 11.8078 -3.21397 
19 1 14.7038 7.69092 11.0938 -3.14074 
20 1 14.1649 6.0198 9.30726 -3.13976 
21 1 6.54489 11.1673 8.18297 -3.55334 
23 1 6.01736 10.399 10.8228 -3.36185 
24 1 5.29807 8.85702 8.75039 -3.17395 
25 1 8.10891 8.91176 8.56864 -3.85293 
26 1 8.58373 11.0956 10.315 -3.92326 
27 1 11.0288 9.86104 9.5488 -3.89601 
28 1 13.3307 10.0144 11.0218 -3.61269 
29 1 13.2505 11.3927 8.59679 -3.47427 
30 1 13.526 8.63216 8.62086 -3.55042 
31 1 6.43002 12.9298 10.3184 -3.16102 
32 1 8.11832 13.3748 8.32242 -3.49299 
33 1 10.8781 12.5915 9.44929 -3.69905 
34 1 8.87263 13.9755 10.8742 -3.52766 
35 1 11.3919 14.7451 11.0589 -3.38239 
36 1 10.3894 14.8641 8.31718 -3.25751 
37 1 13.2775 12.7296 11.0416 -3.46098 
38 1 12.9327 14.1915 8.82576 -3.1537 
39 1 8.28545 6.61722 12.9051 -3.31949 
40 1 10.9994 6.75563 13.3013 -3.46024 
41 1 7.91389 9.39781 12.5151 -3.61712 
42 1 10.7011 9.30833 12.3769 -3.87901 
43 1 9.26327 8.32869 14.6284 -3.17782 
44 1 11.5567 9.52728 14.9282 -3.27611 
45 1 9.27953 11.0042 14.2864 -3.43303 
49 1 10.7489 11.9714 12.0962 -3.85205 
46 1 13.0405 11.1155 13.4065 -3.42251 
47 1 13.1855 8.23401 13.1475 -3.41572 
48 1 7.65621 12.2182 12.5796 -3.40105 
50 1 9.71717 13.8656 13.4982 -3.25113 
51 1 11.3447 12.2872 15.0398 -3.13315 
52 1 12.4228 13.8449 13.3113 -3.16411 
