/var/folders/35/zn93tsdx7p13vbrdj0l0gn9r0000gn/T/LAMMPS-ovteywdc/data.lammps (written by ASE) 

5 	 atoms 
1  atom types
0.0 10.000000000  xlo xhi
0.0 10.000000000  ylo yhi
0.0 10.000000000  zlo zhi


Atoms 

     1   1 6.201697621 4.030552302 3.787462649
     2   1 3.798302379 4.043687765 4.285367629
     3   1 6.201697621 5.158062448 6.212537351
     4   1 5.592213801 5.969447698 3.977588735
     5   1 3.798302379 5.425340267 5.792246408
