ITEM: TIMESTEP
22
ITEM: NUMBER OF ATOMS
5
ITEM: BOX BOUNDS pp pp pp
0 10
0 10
0 10
ITEM: ATOMS id type x y z c_pea 
2 1 4.07749 3.9092 4.42009 -2.76122 
1 1 6.44135 3.97395 3.76211 -2.57482 
4 1 5.32876 6.15257 3.96309 -2.7612 
3 1 5.94898 4.7144 6.04989 -2.7612 
5 1 3.79563 5.87697 5.86003 -2.57482 
