ITEM: TIMESTEP
2
ITEM: NUMBER OF ATOMS
5
ITEM: BOX BOUNDS pp pp pp
0 10
0 10
0 10
ITEM: ATOMS id type x y z c_pea 
5 1 5.90098 4.10817 3.56616 -1.61572 
3 1 nan nan nan 0 
4 1 nan nan nan 0 
1 1 4.09901 3.86385 5.21493 -2.17901 
2 1 4.1005 5.99438 6.43383 -1.6158 
