/var/folders/35/zn93tsdx7p13vbrdj0l0gn9r0000gn/T/LAMMPS-pvaa9fd0/data.lammps (written by ASE) 

55 	 atoms 
1  atom types
0.0 20.000000000  xlo xhi
0.0 20.000000000  ylo yhi
0.0 20.000000000  zlo zhi


Atoms 

     1   1 7.582934818 9.487160000 4.797649455
     2   1 6.993334818 11.909130000 5.666899455
     3   1 5.526844818 9.719370000 6.554329455
     4   1 9.565474818 11.311530000 5.644839455
     5   1 7.450084818 7.349960000 6.393629455
     6   1 9.963484818 8.670610000 5.767409455
     7   1 8.589054818 13.970230000 6.248219455
     8   1 5.864864818 12.116630000 7.927249455
     9   1 7.943534818 9.749460000 7.480289455
    10   1 5.768444818 7.704510000 8.304939455
    11   1 12.111484818 10.466330000 6.226749455
    12   1 11.116684818 13.031230000 6.976259455
    13   1 9.721694818 6.817590000 7.686269455
    14   1 7.183724818 14.385530000 8.561649455
    15   1 8.653884818 12.258730000 8.202539455
    16   1 12.200784818 7.874270000 7.160239455
    17   1 7.442974818 5.843720000 8.993429455
    18   1 6.059134818 9.984940000 9.523059455
    19   1 9.905984818 14.840830000 8.494819455
    20   1 10.573484818 9.935260000 8.290919455
    21   1 12.007284818 5.434380000 8.112209455
    22   1 13.331784818 12.133230000 7.926619455
    23   1 8.465374818 8.181670000 9.666909455
    24   1 6.437414818 12.481430000 10.502639455
    25   1 6.181814818 7.590860000 10.984939455
    26   1 9.911984818 5.159170000 9.855499455
    27   1 13.388684818 9.632340000 8.717199455
    28   1 8.670764818 10.859230000 10.493239455
    29   1 11.137255182 5.511529091 11.227650545
    30   1 12.006355182 8.016179091 10.322050545
    31   1 13.304055182 5.290899091 9.688160545
    32   1 14.473155182 7.713359091 9.729790545
    33   1 11.573755182 10.517509091 11.659950545
    34   1 9.118455182 9.014809091 11.166050545
    35   1 13.855055182 10.387309091 10.176250545
    36   1 10.535055182 12.621609091 9.969650545
    37   1 8.139955182 14.010409091 11.114650545
    38   1 12.095455182 14.728609091 9.242770545
    39   1 10.729655182 14.655309091 11.638650545
    40   1 13.068455182 12.992409091 10.970250545
    41   1 8.995465182 6.558519091 12.336850545
    42   1 11.279155182 7.848059091 12.941650545
    43   1 13.540755182 6.352789091 12.005850545
    44   1 7.022585182 8.158759091 12.763450545
    45   1 6.818925182 10.713009091 12.659350545
    46   1 7.816335182 11.745009091 14.896650545
    47   1 9.248155182 9.488189091 13.878550545
    48   1 12.033655182 10.124709091 14.234950545
    49   1 9.339325182 11.858109091 12.528650545
    50   1 10.287455182 11.792609091 15.202350545
    51   1 13.816555182 8.852839091 12.390550545
    52   1 13.974255182 11.397309091 12.839450545
    53   1 6.740845182 13.323809091 13.152850545
    54   1 9.233055182 14.031409091 13.904050545
    55   1 11.792355182 12.874209091 13.355450545
