ITEM: TIMESTEP
96
ITEM: NUMBER OF ATOMS
55
ITEM: BOX BOUNDS pp pp pp
0 20
0 20
0 20
ITEM: ATOMS id type x y z c_pea 
5 1 6.88324 7.45956 6.5323 -3.26264 
13 1 8.94404 5.87734 6.82219 -3.20849 
21 1 11.4073 5.32376 7.74351 -3.21766 
16 1 12.2728 7.79659 7.17636 -3.46274 
1 1 7.73529 9.48465 5.06189 -3.17213 
2 1 7.09739 11.8922 6.01946 -3.3973 
3 1 5.51802 9.69725 6.39329 -3.15044 
9 1 7.96819 9.45077 7.97816 -3.97586 
4 1 9.76148 11.0479 5.83579 -3.5298 
6 1 9.84725 8.34574 6.18247 -3.52537 
11 1 12.416 10.3649 6.40838 -3.23416 
14 1 7.00426 14.018 7.99352 -3.30406 
7 1 8.99453 13.7608 6.13138 -3.15577 
12 1 11.2874 12.7969 7.2221 -3.52376 
17 1 7.33801 6.77301 9.04281 -3.47919 
26 1 9.18177 4.77489 9.19317 -3.15618 
29 1 11.4131 5.63145 10.4186 -3.45848 
23 1 9.99057 7.39755 8.79326 -3.78906 
41 1 8.93435 6.52077 11.2724 -3.46174 
31 1 13.6854 6.29938 8.92138 -3.30053 
32 1 15.1335 7.98724 10.4515 -3.16683 
43 1 13.5868 6.32443 11.67 -3.14832 
8 1 5.80822 11.4594 8.34518 -3.52633 
10 1 5.50712 8.82449 8.91634 -3.34629 
25 1 6.91039 8.48658 11.1548 -3.53275 
18 1 5.09912 10.6754 11.0042 -3.27016 
28 1 7.572 11.1387 10.4778 -3.81895 
20 1 10.7849 10.0981 8.39554 -3.90535 
33 1 11.8744 10.5325 11.5043 -3.78143 
34 1 9.53743 9.22717 10.7577 -3.85912 
22 1 13.034 11.5954 8.89897 -3.59479 
27 1 14.2025 9.25244 8.28034 -3.33449 
30 1 12.4034 8.34029 10.0406 -3.86287 
35 1 14.5424 10.5166 10.8513 -3.409 
24 1 5.57236 13.2702 10.1541 -3.15967 
15 1 8.73832 12.0824 8.21385 -3.72711 
19 1 9.72754 14.6955 8.56682 -3.42714 
36 1 10.5284 12.4307 10.2273 -3.89474 
37 1 8.15905 13.9076 10.5938 -3.60973 
39 1 10.7313 14.8297 11.2529 -3.26395 
38 1 12.2984 14.3052 9.17287 -3.17698 
40 1 13.2984 13.0022 11.2047 -3.37837 
42 1 11.2306 7.61764 12.4323 -3.57624 
45 1 6.71645 10.1986 13.2547 -3.44679 
44 1 8.80132 8.43578 13.2556 -3.43619 
47 1 8.73842 10.055 15.2506 -3.13942 
49 1 9.19225 11.2902 12.7226 -3.91585 
48 1 11.2412 9.94543 14.0562 -3.5438 
51 1 13.6642 8.76073 12.7212 -3.40938 
52 1 13.6055 11.329 13.373 -3.16851 
46 1 7.55887 12.3136 14.8549 -3.14902 
53 1 6.52395 12.7471 12.5062 -3.39957 
50 1 10.1514 12.2347 15.1848 -3.1605 
54 1 8.96723 13.9392 13.2068 -3.35898 
55 1 11.4668 12.9161 13.0611 -3.49646 
