ITEM: TIMESTEP
24
ITEM: NUMBER OF ATOMS
5
ITEM: BOX BOUNDS pp pp pp
0 10
0 10
0 10
ITEM: ATOMS id type x y z c_pea 
2 1 4.75358 3.7544 3.55093 -2.57482 
1 1 3.7018 5.91659 4.04406 -2.76119 
5 1 6.0674 5.28703 4.94704 -2.76119 
4 1 3.95453 4.05319 5.85258 -2.76123 
3 1 4.39573 6.41717 6.34451 -2.57482 
