/var/folders/35/zn93tsdx7p13vbrdj0l0gn9r0000gn/T/LAMMPS-bzrd3h_k/data.lammps (written by ASE) 

55 	 atoms 
1  atom types
0.0 20.000000000  xlo xhi
0.0 20.000000000  ylo yhi
0.0 20.000000000  zlo zhi


Atoms 

     1   1 8.996039636 11.588356455 15.071615455
     2   1 10.064109636 13.795756455 14.623315455
     3   1 12.450759636 8.931006455 14.442915455
     4   1 11.767159636 11.685356455 14.259315455
     5   1 9.846909636 9.474826455 13.863915455
     6   1 7.473919636 13.195256455 13.512315455
     7   1 14.241059636 10.418456455 13.318915455
     8   1 7.489349636 10.513956455 13.024115455
     9   1 11.053359636 7.481706455 12.556815455
    10   1 9.241709636 15.019256455 12.547215455
    11   1 11.673359636 13.885056455 12.471515455
    12   1 8.223399636 7.815956455 12.369615455
    13   1 9.653779636 12.078756455 12.344215455
    14   1 11.871659636 10.134456455 12.129015455
    15   1 13.741159636 8.035626455 12.107015455
    16   1 13.695559636 12.418756455 11.740615455
    17   1 5.595549636 12.055256455 11.720315455
    18   1 7.203669636 14.290756455 11.102015455
    19   1 6.290009636 9.310046455 11.050715455
    20   1 12.542959636 6.071506455 10.829015455
    21   1 9.361849636 9.564876455 10.781815455
    22   1 14.187759636 10.094456455 10.407915455
    23   1 9.802599636 6.760546455 10.316215455
    24   1 7.696419636 11.760356455 10.232315455
    25   1 9.895729636 13.947456455 10.176015455
    26   1 11.529359636 11.796756455 10.122515455
    27   1 12.601759636 14.322456455 10.014915455
    28   1 7.168639636 6.983906455 9.944315455
    29   1 11.900659636 8.583106455 9.868475455
    30   1 7.085190364 7.665413545 6.398794545
    31   1 9.145990364 6.083193545 6.688684545
    32   1 11.609250364 5.529613545 7.610004545
    33   1 12.474750364 8.002443545 7.042854545
    34   1 7.937240364 9.690503545 4.928384545
    35   1 7.299340364 12.098053545 5.885954545
    36   1 5.719970364 9.903103545 6.259784545
    37   1 8.170140364 9.656623545 7.844654545
    38   1 9.963430364 11.253753545 5.702284545
    39   1 10.049200364 8.551593545 6.048964545
    40   1 12.617950364 10.570753545 6.274874545
    41   1 7.206210364 14.223853545 7.860014545
    42   1 9.196480364 13.966653545 5.997874545
    43   1 11.489350364 13.002753545 7.088594545
    44   1 7.539960364 6.978863545 8.909304545
    45   1 9.383720364 4.980743545 9.059664545
    46   1 10.192520364 7.603403545 8.659754545
    47   1 13.887350364 6.505233545 8.787874545
    48   1 6.010170364 11.665253545 8.211674545
    49   1 5.709070364 9.030343545 8.782834545
    50   1 10.986850364 10.303953545 8.262034545
    51   1 13.235950364 11.801253545 8.765464545
    52   1 14.404450364 9.458293545 8.146834545
    53   1 8.940270364 12.288253545 8.080344545
    54   1 9.929490364 14.901353545 8.433314545
    55   1 12.500350364 14.511053545 9.039364545
