ITEM: TIMESTEP
86
ITEM: NUMBER OF ATOMS
55
ITEM: BOX BOUNDS pp pp pp
0 20
0 20
0 20
ITEM: ATOMS id type x y z c_pea 
30 1 7.92664 6.92774 6.18791 -3.18209 
31 1 10.303 5.98405 6.83545 -3.26975 
33 1 12.264 7.81885 7.1145 -3.51377 
34 1 7.45687 9.58148 5.68965 -3.32626 
36 1 5.50696 10.6511 7.145 -3.16594 
49 1 6.41808 8.21798 7.90497 -3.45271 
38 1 9.63275 11.3611 5.72276 -3.53747 
39 1 10.0006 8.68627 5.9087 -3.51702 
40 1 12.1936 10.5046 5.90294 -3.29866 
52 1 14.0077 9.70254 7.59259 -3.1563 
35 1 7.29927 12.4849 6.47195 -3.40195 
42 1 9.25558 14.1536 5.95567 -3.16244 
43 1 11.7076 13.1689 6.0629 -3.32162 
54 1 10.6863 15.2209 7.91779 -3.30292 
55 1 13.1641 14.6586 7.52229 -2.83811 
28 1 7.08923 7.8833 10.5427 -3.42565 
44 1 7.61366 5.86653 8.71632 -3.18174 
23 1 9.35592 6.69552 11.2222 -3.52599 
45 1 10.077 5.1262 9.29042 -3.26054 
46 1 9.21081 7.85912 8.42418 -3.78995 
29 1 11.5215 7.81231 9.9118 -3.84695 
32 1 12.4968 5.555 8.5054 -3.1801 
20 1 12.0282 5.56638 11.1549 -3.22242 
47 1 14.0972 7.50358 9.21724 -3.24191 
15 1 13.5674 7.67666 11.8872 -3.44763 
19 1 5.93858 10.2047 9.74878 -3.50457 
37 1 8.16268 10.4766 8.09157 -3.88941 
21 1 9.18867 9.57873 10.5739 -3.9065 
26 1 11.1157 11.8286 10.4868 -3.86094 
50 1 11.0703 10.0525 8.24926 -3.92054 
22 1 13.3981 9.98929 10.1149 -3.66087 
41 1 7.95779 14.4512 8.36708 -3.4381 
48 1 5.92605 12.7853 8.78139 -3.39144 
17 1 5.38114 12.3065 11.3291 -3.16619 
18 1 6.95513 14.4336 11.0142 -3.27905 
24 1 8.05155 12.1567 10.3865 -3.90477 
25 1 9.6996 14.4332 10.4392 -3.5845 
53 1 9.99836 12.6551 8.14944 -3.84962 
51 1 12.944 12.133 8.30157 -3.64247 
16 1 13.5473 12.3776 11.4401 -3.32505 
27 1 12.3223 14.2723 9.92436 -3.38539 
9 1 11.1927 7.1562 13.1881 -3.35532 
8 1 6.90241 10.1915 12.2612 -3.55474 
12 1 8.8569 8.58197 13.1295 -3.5141 
1 1 8.02197 10.6853 14.7597 -3.16715 
5 1 10.5301 9.83633 14.8034 -3.38945 
14 1 11.5364 9.59437 12.1486 -3.84247 
13 1 9.49087 11.4912 12.6617 -3.79456 
4 1 12.329 11.5777 13.8473 -3.46613 
3 1 12.9362 8.81582 14.3561 -3.14789 
7 1 14.3113 10.1625 12.6527 -3.16936 
6 1 7.03065 12.6897 13.3118 -3.32277 
2 1 9.94539 12.6429 14.871 -3.19349 
10 1 8.91003 14.3195 12.9699 -3.22113 
11 1 11.4127 13.6932 12.5524 -3.43444 
