/var/folders/35/zn93tsdx7p13vbrdj0l0gn9r0000gn/T/LAMMPS-nz3izosw/data.lammps (written by ASE) 

55 	 atoms 
1  atom types
0.0 20.000000000  xlo xhi
0.0 20.000000000  ylo yhi
0.0 20.000000000  zlo zhi


Atoms 

     1   1 8.442074909 5.386185818 10.985146455
     2   1 11.248664909 5.325135818 10.411346455
     3   1 13.547864909 6.639355818 10.222466455
     4   1 6.550334909 9.859885818 10.445846455
     5   1 6.503834909 7.360065818 11.558246455
     6   1 12.155864909 9.150115818 10.721446455
     7   1 9.997594909 7.544855818 11.327646455
     8   1 13.447364909 11.245685818 12.136646455
     9   1 14.497464909 8.715125818 11.660946455
    10   1 6.846204909 14.187585818 10.897046455
    11   1 5.763124909 11.923085818 12.018546455
    12   1 8.352634909 11.993085818 11.598946455
    13   1 10.770164909 12.474185818 10.426346455
    14   1 9.424184909 14.504085818 11.944846455
    15   1 13.370164909 13.089485818 10.223326455
    16   1 8.053734909 6.576275818 13.427746455
    17   1 10.316004909 5.329355818 12.940046455
    18   1 12.450364909 6.889225818 12.550046455
    19   1 8.325534909 9.292585818 12.470846455
    20   1 5.761754909 9.410285818 13.106646455
    21   1 7.669354909 8.680285818 14.966146455
    22   1 7.373924909 11.269885818 14.211846455
    23   1 10.319054909 7.893435818 14.069446455
    24   1 9.831214909 10.294185818 15.049446455
    25   1 10.711464909 10.647585818 12.511746455
    26   1 12.682864909 9.222265818 13.745146455
    27   1 7.232444909 13.802285818 13.406246455
    28   1 9.681254909 12.808385818 14.036046455
    29   1 11.900064909 13.440485818 12.620446455
    30   1 12.123364909 11.684985818 14.580046455
    31   1 7.728375091 6.770580000 7.437663545
    32   1 10.410355091 7.312080000 7.221393545
    33   1 6.131945091 8.981440000 7.035913545
    34   1 7.236595091 10.834080000 5.573863545
    35   1 8.407415091 8.387330000 5.353563545
    36   1 11.061255091 8.422860000 4.950553545
    37   1 9.844215091 10.791280000 5.300163545
    38   1 11.327755091 9.941980000 7.453383545
    39   1 8.639705091 9.531340000 7.722493545
    40   1 13.111955091 8.177190000 6.742333545
    41   1 12.704355091 10.380980000 5.133223545
    42   1 13.699055091 11.166080000 7.469433545
    43   1 10.369355091 14.698580000 7.256883545
    44   1 8.559285091 13.096480000 6.121593545
    45   1 11.621855091 12.596780000 6.176163545
    46   1 5.502535091 7.232690000 8.914203545
    47   1 7.037335091 5.301420000 9.604493545
    48   1 9.731665091 5.690720000 9.214733545
    49   1 12.470255091 6.549770000 8.883903545
    50   1 7.020535091 11.744980000 8.083853545
    51   1 6.143995091 9.677180000 9.691943545
    52   1 13.575455091 9.112890000 9.267253545
    53   1 8.109805091 14.164880000 8.711323545
    54   1 9.822025091 12.225380000 8.241203545
    55   1 12.547655091 13.366080000 8.592753545
