ITEM: TIMESTEP
114
ITEM: NUMBER OF ATOMS
55
ITEM: BOX BOUNDS pp pp pp
0 20
0 20
0 20
ITEM: ATOMS id type x y z c_pea 
31 1 7.47362 6.23136 6.7105 -3.2808 
32 1 10.1935 6.60131 6.5382 -3.42289 
40 1 12.7841 7.23534 6.50611 -3.15137 
33 1 6.16355 8.47414 6.13601 -3.0909 
34 1 7.81243 10.3138 7.19054 -3.58329 
51 1 5.30554 10.2834 7.86577 -3.00361 
35 1 8.72582 8.47925 5.52287 -3.38262 
36 1 11.2903 8.5455 4.88081 -3.15416 
37 1 10.1951 10.8408 5.52524 -3.26785 
38 1 10.8366 9.35358 7.59879 -3.94442 
41 1 13.0911 9.90742 6.27173 -3.26403 
43 1 11.173 14.4707 7.8767 -3.15096 
44 1 9.33614 12.4521 7.53543 -3.51041 
45 1 11.9909 12.1245 7.11898 -3.39381 
5 1 6.84852 7.26694 10.9879 -3.54576 
46 1 5.65038 7.66797 8.49189 -3.32759 
47 1 6.84184 5.39265 9.13884 -3.15277 
39 1 8.39531 7.90254 8.51284 -3.94013 
1 1 8.49639 5.0406 11.2998 -3.32421 
2 1 11.2984 5.10071 10.7695 -3.29507 
7 1 9.71631 7.43243 10.9819 -3.92229 
48 1 9.38937 5.30029 8.7818 -3.42284 
49 1 11.519 7.00797 8.90064 -3.6565 
3 1 13.7657 6.49541 10.1467 -3.04979 
4 1 6.46544 9.74153 10.1236 -3.61088 
11 1 6.08695 11.7457 11.8774 -3.41376 
6 1 11.7541 9.40058 10.3576 -3.8973 
54 1 9.14536 10.3543 9.60579 -3.86325 
42 1 13.5115 11.0596 8.96695 -3.46798 
9 1 14.2527 9.0616 11.1009 -3.29538 
52 1 13.8375 8.5218 8.49543 -3.37558 
8 1 13.3226 11.6536 11.5674 -3.53933 
50 1 6.9962 12.2186 9.12924 -3.56956 
10 1 6.66974 14.2655 10.879 -3.14756 
12 1 8.64092 12.4651 11.4459 -3.84161 
13 1 10.9994 12.3452 9.76705 -3.87216 
14 1 9.15361 15.0615 11.9981 -3.33 
53 1 8.88549 14.3497 9.38059 -3.46881 
55 1 11.175 15.4238 10.2282 -3.12198 
15 1 13.164 13.7129 9.58415 -3.2301 
16 1 7.98779 6.93492 13.3169 -3.39976 
17 1 10.3329 5.68568 13.1215 -3.16893 
18 1 12.3427 7.26239 12.1012 -3.50275 
20 1 6.07035 9.15696 13.0098 -3.22061 
22 1 7.65839 11.3926 14.0543 -3.46579 
23 1 10.406 8.3263 13.689 -3.58492 
21 1 8.04939 8.97698 14.9166 -3.1628 
19 1 8.41216 9.56231 12.1639 -3.77828 
24 1 10.1907 10.667 14.9533 -3.32375 
25 1 10.7227 10.9823 12.3397 -3.77417 
26 1 12.8057 9.63571 13.3564 -3.36475 
27 1 7.16739 13.8829 13.3588 -3.14771 
28 1 9.74246 13.174 13.9789 -3.45398 
29 1 11.6116 13.7185 12.1017 -3.51289 
30 1 12.3111 12.1341 14.1661 -3.15428 
