/var/folders/35/zn93tsdx7p13vbrdj0l0gn9r0000gn/T/LAMMPS-uwmsm0ti/data.lammps (written by ASE) 

5 	 atoms 
1  atom types
0.0 10.000000000  xlo xhi
0.0 10.000000000  ylo yhi
0.0 10.000000000  zlo zhi


Atoms 

     1   1 3.096085000 4.681585000 5.256320000
     2   1 5.201765000 3.717615000 6.069940000
     3   1 4.729635000 6.282385000 6.147110000
     4   1 6.903915000 5.376305000 5.456650000
     5   1 5.068605000 5.086695000 3.852890000
