/tmp/LAMMPS-dmxfv2mi/data.lammps (written by ASE) 

55 	 atoms 
1  atom types
4.827375000000002 15.172624999999998  xlo xhi
3.780543912602972 16.219456087397027  ylo yhi
5.181591348787837 14.818408651212163  zlo zhi


Atoms 

     1   1 12.732625000 8.742319025 10.804731349
     2   1 14.733625000 6.941329025 11.864131349
     3   1 15.172625000 8.673049025 9.735121349
     4   1 10.529725000 7.390609025 13.656431349
     5   1 9.379735000 5.988539025 11.450931349
     6   1 12.072825000 6.254579025 11.798531349
     7   1 7.901165000 11.976449025 5.765081349
     8   1 10.802425000 9.362339025 8.771021349
     9   1 9.536255000 11.509549025 7.699891349
    10   1 12.068825000 12.580349025 7.380781349
    11   1 13.494525000 10.598849025 8.777451349
    12   1 11.916425000 10.110839025 6.383971349
    13   1 9.892235000 8.480559025 11.219831349
    14   1 8.206665000 10.105699025 9.767541349
    15   1 11.151225000 6.632469025 9.291261349
    16   1 9.589635000 9.883459025 5.184131349
    17   1 10.426515000 7.789119025 6.731811349
    18   1 6.425935000 11.158049025 7.922581349
    19   1 13.050825000 8.077659025 7.856291349
    20   1 13.780425000 6.319389025 9.621351349
    21   1 6.075995000 8.774259025 9.050491349
    22   1 8.636485000 7.356969025 8.859741349
    23   1 7.999785000 9.210519025 7.063811349
    24   1 7.099115000 7.286189025 10.925231349
    25   1 10.564225000 12.240749025 5.181591349
    26   1 8.153125000 11.764649025 8.998931349
    27   1 9.038225000 13.739649025 7.179971349
    28   1 7.428535000 14.519549025 9.305731349
    29   1 6.359065000 13.132749025 7.395721349
    30   1 14.365525000 11.240449025 10.929731349
    31   1 10.243025000 14.050749025 12.897731349
    32   1 11.666825000 15.216649025 10.656131349
    33   1 13.005525000 12.945049025 9.340931349
    34   1 12.464225000 12.893149025 11.964031349
    35   1 10.243125000 13.250149025 9.962931349
    36   1 9.783525000 15.789649025 8.884041349
    37   1 11.555025000 14.318349025 7.623051349
    38   1 11.792025000 10.464329025 10.257031349
    39   1 7.537825000 10.287679025 12.709331349
    40   1 8.621125000 7.873009025 13.123331349
    41   1 10.122225000 11.235149025 12.118031349
    42   1 8.619425000 12.218949025 14.288431349
    43   1 7.986675000 12.848049025 11.550131349
    44   1 5.929005000 12.518649025 13.149731349
    45   1 7.641885000 14.604349025 13.617031349
    46   1 11.346825000 12.111849025 14.397131349
    47   1 10.076325000 9.787769025 14.275631349
    48   1 12.779125000 10.387729025 12.929731349
    49   1 6.032735000 14.688449025 11.567031349
    50   1 5.647335000 12.323649025 10.090931349
    51   1 4.827375000 10.417909025 11.896531349
    52   1 8.805225000 15.572549025 11.333531349
    53   1 5.620492837 9.841775103 14.818408651
    54   1 10.468040315 16.219456087 14.786984584
    55   1 13.240032447 3.780543913 12.715033961
