/var/folders/35/zn93tsdx7p13vbrdj0l0gn9r0000gn/T/LAMMPS-nf95f37m/data.lammps (written by ASE) 

5 	 atoms 
1  atom types
0.0 10.000000000  xlo xhi
0.0 10.000000000  ylo yhi
0.0 10.000000000  zlo zhi


Atoms 

     1   1 3.760758770 3.957126625 4.813033131
     2   1 4.996753051 6.042873375 4.429977128
     3   1 3.760758770 3.957126625 4.813033131
     4   1 6.239241230 4.259194144 5.570022872
     5   1 4.996753051 6.042873375 4.429977128
