/tmp/LAMMPS-pr5bx153/data.lammps (written by ASE) 

55 	 atoms 
1  atom types
5.176429999999999 14.82357  xlo xhi
4.299875 15.700125  ylo yhi
4.717197049014431 15.28280295098557  zlo zhi


Atoms 

     1   1 14.823570000 11.706325000 13.905637049
     2   1 11.218470000 14.971725000 11.756237049
     3   1 13.484570000 14.506025000 10.152337049
     4   1 13.236870000 13.558325000 12.783537049
     5   1 8.011830000 12.023325000 13.128937049
     6   1 8.189480000 10.064035000 14.854337049
     7   1 9.126200000 14.503325000 13.321437049
     8   1 10.658570000 9.978015000 14.066737049
     9   1 12.420270000 11.809125000 14.829237049
    10   1 8.691270000 15.700125000 10.829837049
    11   1 12.833370000 10.719315000 12.164437049
    12   1 13.495370000 9.253675000 14.125837049
    13   1 11.423470000 7.995025000 12.542737049
    14   1 8.707560000 8.234935000 12.968237049
    15   1 9.161540000 13.151425000 10.533337049
    16   1 10.758170000 12.447725000 12.706737049
    17   1 9.728570000 12.311625000 15.155137049
    18   1 9.412630000 10.317485000 11.430537049
    19   1 6.882240000 14.112625000 12.050437049
    20   1 6.644930000 9.820475000 12.723537049
    21   1 10.992570000 15.156225000 9.231067049
    22   1 8.596750000 15.022925000 8.146967049
    23   1 7.320520000 8.798475000 10.426037049
    24   1 6.488070000 14.282725000 9.569417049
    25   1 6.271540000 14.209525000 6.893947049
    26   1 6.776280000 11.575925000 10.605337049
    27   1 5.176430000 12.277725000 8.325687049
    28   1 7.372640000 8.512935000 7.763917049
    29   1 7.500530000 11.225425000 6.815547049
    30   1 10.227770000 11.738325000 6.028287049
    31   1 9.093400000 13.515225000 7.560007049
    32   1 8.886650000 6.562435000 6.745217049
    33   1 9.071580000 10.907325000 8.815197049
    34   1 8.370990000 6.128925000 9.421937049
    35   1 10.072520000 8.309215000 8.425307049
    36   1 11.363170000 7.518885000 6.148587049
    37   1 9.233900000 9.259535000 5.983107049
    38   1 13.101070000 7.838175000 11.495937049
    39   1 14.113370000 10.030195000 10.049237049
    40   1 11.679870000 5.568285000 12.627337049
    41   1 12.875770000 5.623395000 10.145437049
    42   1 10.667770000 4.299875000 10.334237049
    43   1 11.533870000 9.834185000 4.717197049
    44   1 13.780770000 12.280325000 8.365817049
    45   1 14.753970000 10.018335000 7.553867049
    46   1 13.253770000 11.586825000 5.767347049
    47   1 11.861870000 13.604425000 6.956507049
    48   1 11.263370000 12.521825000 9.265167049
    49   1 11.009470000 5.766885000 8.217497049
    50   1 13.602570000 8.753915000 5.802717049
    51   1 12.925170000 7.904095000 8.591977049
    52   1 11.897570000 10.240605000 7.545827049
    53   1 11.474570000 9.893365000 10.294137049
    54   1 10.553570000 7.074645000 10.859337049
    55   1 6.346838998 12.978242086 15.282802951
