/tmp/LAMMPS-rpqq9k3i/data.lammps (written by ASE) 

55 	 atoms 
1  atom types
3.8250850000000005 16.174915  xlo xhi
4.942944999999998 15.057055000000002  ylo yhi
5.420554999999999 14.579445  zlo zhi


Atoms 

     1   1 9.947165000 14.767755000 11.639645000
     2   1 12.612715000 15.057055000 12.021845000
     3   1 12.034815000 12.522455000 11.502445000
     4   1 11.917615000 8.602945000 14.579445000
     5   1 9.671025000 9.534415000 13.264145000
     6   1 9.711055000 6.897255000 13.835945000
     7   1 12.551415000 9.679375000 12.219345000
     8   1 11.435415000 11.354055000 14.236145000
     9   1 10.852775000 13.891955000 13.861545000
    10   1 15.118415000 9.195775000 10.957645000
    11   1 9.515845000 11.978955000 12.036445000
    12   1 7.160705000 10.939355000 12.982645000
    13   1 8.827935000 12.237155000 14.528545000
    14   1 13.465315000 13.161955000 13.698345000
    15   1 16.174915000 10.003445000 13.203745000
    16   1 14.447915000 8.083215000 13.436845000
    17   1 13.987115000 10.581855000 14.371245000
    18   1 7.618185000 13.658555000 12.434045000
    19   1 7.396215000 11.916055000 10.334045000
    20   1 10.415145000 9.975615000 10.389445000
    21   1 7.816445000 9.209945000 11.038745000
    22   1 7.418675000 8.201175000 13.433845000
    23   1 7.852945000 6.352705000 11.628845000
    24   1 10.154495000 7.483605000 11.205245000
    25   1 10.146575000 4.942945000 12.120645000
    26   1 14.511515000 6.576965000 11.158945000
    27   1 12.265615000 6.700125000 12.714745000
    28   1 14.715415000 11.703355000 11.822145000
    29   1 14.692415000 9.863455000 9.032545000
    30   1 5.734185000 13.371855000 10.000245000
    31   1 10.773915000 13.838755000 9.483755000
    32   1 12.530915000 11.695955000 9.235805000
    33   1 12.121915000 6.255575000 10.114645000
    34   1 13.168715000 7.867625000 8.288765000
    35   1 13.033315000 10.349355000 6.933075000
    36   1 10.788715000 10.373255000 5.420555000
    37   1 8.161935000 12.698455000 8.523665000
    38   1 8.345945000 10.951555000 6.412125000
    39   1 11.898615000 8.092955000 5.938075000
    40   1 10.574615000 12.095655000 7.414945000
    41   1 9.170405000 8.360105000 6.183175000
    42   1 5.426605000 6.699685000 7.343385000
    43   1 10.780315000 9.441655000 8.111085000
    44   1 10.686715000 6.646245000 7.847915000
    45   1 4.244055000 10.910455000 9.951435000
    46   1 7.975855000 7.058225000 8.254795000
    47   1 5.972355000 11.208955000 8.063305000
    48   1 3.825085000 6.474275000 9.302235000
    49   1 8.215445000 9.766755000 8.860535000
    50   1 9.198835000 5.109455000 9.552825000
    51   1 6.530505000 8.960645000 6.744565000
    52   1 6.251575000 5.443865000 9.549995000
    53   1 5.956875000 8.389155000 9.724775000
    54   1 4.070385000 8.977315000 7.983935000
    55   1 14.987515000 12.467155000 9.409115000
