/var/folders/35/zn93tsdx7p13vbrdj0l0gn9r0000gn/T/LAMMPS-x7vmz1pd/data.lammps (written by ASE) 

5 	 atoms 
1  atom types
0.0 10.000000000  xlo xhi
0.0 10.000000000  ylo yhi
0.0 10.000000000  zlo zhi


Atoms 

     1   1 5.895560300 3.792632873 5.143781313
     2   1 5.275968030 6.207367127 5.913464310
     3   1 3.767762313 4.301569799 6.256531152
     4   1 6.232237687 4.148186681 3.743468848
     5   1 4.678106133 6.037462331 3.942725543
