ITEM: TIMESTEP
140
ITEM: NUMBER OF ATOMS
55
ITEM: BOX BOUNDS ss ss ss
5.14094 14.9632
5.54613 14.7501
4.52721 14.9897
ITEM: ATOMS id type x y z c_pea 
30 1 9.59791 5.54713 8.11666 -3.33295 
32 1 5.62699 7.55787 8.85252 -3.28687 
40 1 5.65371 9.52717 7.20828 -3.37147 
43 1 7.57009 9.50088 9.34645 -3.79106 
45 1 7.1945 9.21611 5.05475 -3.18523 
46 1 9.20417 7.72867 4.63238 -3.31901 
47 1 8.26764 5.63136 5.83579 -3.02795 
50 1 8.18808 7.80193 7.33995 -3.75916 
55 1 6.04967 7.07132 6.12538 -3.05236 
29 1 12.0171 6.65171 8.50199 -3.53827 
31 1 14.4856 7.72361 9.04551 -3.16356 
35 1 13.352 8.03006 6.6631 -3.40099 
51 1 11.783 8.47903 4.52818 -3.16788 
53 1 10.6129 8.92734 7.03474 -3.88912 
54 1 10.9932 6.37696 6.00758 -3.36817 
38 1 14.7911 10.1036 8.04201 -3.27167 
52 1 12.3665 9.63337 8.97254 -3.93728 
34 1 9.91949 11.1119 9.51198 -3.98295 
41 1 6.12274 11.8408 8.30222 -3.17399 
42 1 8.47655 13.0988 8.2868 -3.33708 
44 1 9.89984 10.3202 4.84349 -3.29011 
48 1 8.24061 10.7175 6.97307 -3.6596 
49 1 10.6777 11.886 6.97022 -3.50771 
33 1 11.032 13.7441 8.93885 -3.47732 
36 1 13.1782 12.2336 8.02156 -3.47838 
37 1 12.7224 10.4798 6.02874 -3.38245 
21 1 13.6398 14.2936 9.61596 -3.14986 
28 1 7.80079 6.44685 9.83639 -3.4385 
13 1 10.0171 8.10523 9.77872 -3.94417 
27 1 5.14193 10.1003 10.0816 -3.27537 
8 1 8.82876 7.0501 12.2078 -3.38592 
12 1 8.64211 9.72203 11.8561 -3.75141 
25 1 6.38307 8.14756 11.4517 -3.34806 
6 1 10.4908 5.60978 10.6498 -3.30223 
5 1 10.0757 8.57919 14.0539 -3.31747 
10 1 11.3011 6.57305 13.0236 -3.11933 
15 1 12.7044 7.3135 11.0039 -3.51222 
18 1 12.9499 8.613 13.5514 -3.24878 
20 1 11.3802 9.59626 11.7602 -3.87443 
24 1 14.2251 9.56919 10.9961 -3.51016 
1 1 7.37684 11.9867 10.6238 -3.63564 
2 1 9.71592 14.7491 13.236 -3.15559 
3 1 6.23952 10.616 12.5782 -3.20316 
4 1 9.7028 12.8858 14.9888 -3.14976 
14 1 8.4415 10.7231 14.3076 -3.32233 
26 1 7.65218 12.9862 13.1213 -3.33317 
11 1 9.03148 14.1082 10.7452 -3.40128 
39 1 14.9622 11.9478 10.0966 -3.2947 
7 1 10.0623 12.1222 12.2818 -3.89406 
9 1 12.0731 13.3545 13.729 -3.40103 
16 1 11.345 10.8101 14.4015 -3.46017 
17 1 12.3577 12.0229 10.7025 -3.854 
19 1 14.1636 13.6371 12.0607 -3.17117 
22 1 11.6641 14.6441 11.4222 -3.42678 
23 1 13.6154 11.2002 12.9891 -3.4151 
