ITEM: TIMESTEP
122
ITEM: NUMBER OF ATOMS
55
ITEM: BOX BOUNDS ss ss ss
4.83173 14.7134
5.06893 15.0709
5.11364 15.347
ITEM: ATOMS id type x y z c_pea 
10 1 7.07256 9.40524 7.65704 -3.46671 
12 1 9.48975 8.79989 9.08574 -3.86855 
20 1 8.89386 7.76347 6.55092 -3.27398 
21 1 5.58119 8.61395 9.88208 -3.46073 
24 1 7.4532 6.89694 8.72998 -3.47389 
39 1 10.0907 6.15515 8.81557 -3.46963 
26 1 10.7731 9.19904 5.11465 -2.78067 
34 1 13.9344 8.50441 7.44352 -3.14477 
35 1 12.2619 9.59043 9.56042 -3.97613 
38 1 14.7124 8.60271 10.0145 -3.30782 
40 1 12.7444 6.74093 9.17807 -3.45229 
42 1 11.4013 8.00265 7.22914 -3.44279 
9 1 8.73173 14.1828 9.34732 -3.36982 
13 1 7.70796 12.1644 7.93767 -3.46464 
16 1 5.27504 11.0546 8.66931 -3.15375 
18 1 9.46613 10.496 6.84295 -3.51286 
19 1 7.52756 10.5134 10.1959 -3.87162 
17 1 6.29657 13.0514 10.0924 -3.46188 
14 1 10.4765 13.0616 7.53673 -3.2184 
15 1 12.1288 10.697 7.00837 -3.5329 
36 1 12.7053 12.4358 9.01063 -3.44502 
37 1 14.6013 10.7644 8.27098 -3.12801 
11 1 10.0514 11.4773 9.47096 -3.82889 
23 1 5.8879 6.19358 10.7981 -3.12628 
25 1 5.67467 8.38277 12.7226 -3.57061 
28 1 6.4494 9.44214 15.346 -3.13809 
44 1 9.66352 5.9371 13.0335 -3.42261 
45 1 8.03979 7.90185 11.3254 -3.92101 
51 1 6.97154 5.8905 13.019 -3.13772 
53 1 8.19914 7.97351 14.0697 -3.51519 
54 1 8.51509 5.28574 10.7555 -3.38081 
41 1 11.3912 5.06998 11.0208 -3.27743 
43 1 12.9884 9.18353 12.3763 -3.71604 
47 1 10.9132 8.27667 14.0907 -3.4594 
48 1 10.9688 7.61879 11.2289 -3.87809 
50 1 13.7356 6.68524 11.5248 -3.14132 
55 1 12.2332 6.16507 13.3861 -3.05511 
46 1 9.86229 9.96182 12.2308 -3.92085 
3 1 5.99424 12.9837 12.7651 -3.47179 
4 1 4.83273 10.8428 13.9904 -3.13506 
5 1 8.70367 12.683 11.6447 -3.891 
6 1 7.7565 14.4289 14.0308 -3.13646 
7 1 7.05314 12.0779 15.1571 -3.32898 
8 1 7.3473 10.5366 12.9821 -3.80592 
22 1 5.0075 10.8278 11.3493 -3.45381 
27 1 7.36704 15.0699 11.5081 -3.1772 
49 1 9.12573 10.1993 15.1667 -3.42522 
29 1 9.63361 12.5862 14.1229 -3.52861 
1 1 11.0853 14.0008 10.4471 -3.39948 
2 1 9.82618 14.9966 12.5183 -3.22662 
30 1 11.8209 11.6485 11.5768 -3.67147 
31 1 14.389 11.1131 10.8459 -3.3078 
32 1 11.951 13.5975 13.254 -3.16991 
33 1 13.8866 11.7272 13.305 -2.97596 
52 1 11.6793 10.8671 14.2767 -3.42051 
