/var/folders/35/zn93tsdx7p13vbrdj0l0gn9r0000gn/T/LAMMPS-yfjs5le4/data.lammps (written by ASE) 

5 	 atoms 
1  atom types
0.0 10.000000000  xlo xhi
0.0 10.000000000  ylo yhi
0.0 10.000000000  zlo zhi


Atoms 

     1   1 6.285986365 3.564918461 4.775592434
     2   1 4.988810865 4.359276512 6.702027293
     3   1 3.714013635 3.981262057 4.638816928
     4   1 4.988810865 6.435081539 4.997094499
     5   1 5.349165527 4.700769335 3.297972707
