ITEM: TIMESTEP
20
ITEM: NUMBER OF ATOMS
5
ITEM: BOX BOUNDS pp pp pp
0 10
0 10
0 10
ITEM: ATOMS id type x y z c_pea 
3 1 3.712 3.97774 4.6826 -2.76121 
1 1 6.30063 3.74673 4.91199 -2.76121 
5 1 5.25355 4.81191 2.96426 -2.57481 
2 1 4.87717 4.40464 6.80035 -2.57481 
4 1 5.18344 6.1003 5.0523 -2.76121 
