/var/folders/35/zn93tsdx7p13vbrdj0l0gn9r0000gn/T/LAMMPS-o2yus4yj/data.lammps (written by ASE) 

5 	 atoms 
1  atom types
0.0 10.000000000  xlo xhi
0.0 10.000000000  ylo yhi
0.0 10.000000000  zlo zhi


Atoms 

     1   1 4.272684920 5.312680463 6.239300494
     2   1 6.201063892 5.534861877 4.737105884
     3   1 3.798936108 6.265436550 4.027420585
     4   1 6.054600782 3.734563450 4.602585225
     5   1 3.799922050 4.216773450 3.760699506
