ITEM: TIMESTEP
24
ITEM: NUMBER OF ATOMS
5
ITEM: BOX BOUNDS pp pp pp
0 10
0 10
0 10
ITEM: ATOMS id type x y z c_pea 
5 1 4.06473 4.23194 3.63397 -2.76122 
3 1 3.75973 6.58168 4.27474 -2.57481 
2 1 6.07364 5.76279 4.28796 -2.76121 
4 1 5.89117 3.44406 5.07215 -2.57481 
1 1 4.33794 5.04384 6.09829 -2.76121 
