/tmp/LAMMPS-t9yud0l3/data.lammps (written by ASE) 

55 	 atoms 
1  atom types
3.8378057401208503 16.16219425987915  xlo xhi
5.10797 14.89203  ylo yhi
4.662990000000001 15.33701  zlo zhi


Atoms 

     1   1 13.445905740 10.817530000 12.891310000
     2   1 8.762195740 13.446630000 13.972910000
     3   1 10.898805740 11.970530000 13.082110000
     4   1 10.489805740 7.101430000 12.766310000
     5   1 6.667785740 9.431870000 14.002610000
     6   1 7.835785740 6.954170000 13.154210000
     7   1 9.201005740 9.549410000 12.253410000
     8   1 6.772485740 11.872530000 15.337010000
     9   1 9.087775740 5.107970000 11.516210000
    10   1 7.180255740 11.705930000 12.527010000
    11   1 4.718885740 11.612830000 13.718810000
    12   1 6.116555740 13.955630000 14.005510000
    13   1 9.062585740 10.873730000 14.716610000
    14   1 9.136825740 8.315550000 14.890410000
    15   1 11.359105740 9.452030000 13.961210000
    16   1 8.458065740 7.495120000 10.441360000
    17   1 6.323515740 5.585280000 11.444810000
    18   1 3.837805740 6.598810000 11.790610000
    19   1 3.949175740 9.125080000 13.066110000
    20   1 5.321955740 6.997170000 13.825610000
    21   1 5.997445740 8.392420000 11.471510000
    22   1 13.854605740 7.140750000 9.935420000
    23   1 12.021605740 5.651510000 11.118010000
    24   1 14.529105740 9.697470000 10.668110000
    25   1 12.837205740 13.151230000 11.649210000
    26   1 12.891705740 8.208660000 12.153310000
    27   1 15.187305740 12.077630000 11.462110000
    28   1 11.415305740 13.637830000 10.402170000
    29   1 11.276905740 10.956030000 10.807510000
    30   1 13.698105740 12.440230000 11.135910000
    31   1 13.070405740 11.430930000 8.802040000
    32   1 8.907525740 13.988730000 9.624100000
    33   1 7.085505740 9.569480000 7.156990000
    34   1 8.249715740 11.244130000 9.924210000
    35   1 11.884905740 8.662510000 9.373540000
    36   1 9.564305740 9.439230000 8.292430000
    37   1 7.750205740 12.362430000 7.592940000
    38   1 10.425005740 12.121230000 8.291640000
    39   1 11.861705740 10.289830000 6.805360000
    40   1 5.544135740 11.136130000 8.459520000
    41   1 14.003805740 8.758600000 8.014340000
    42   1 11.773805740 7.716210000 6.548430000
    43   1 6.349625740 13.153330000 9.978420000
    44   1 9.265005740 10.830030000 5.998900000
    45   1 7.319025740 8.671800000 9.919830000
    46   1 9.066215740 7.995040000 6.064000000
    47   1 10.040205740 6.706100000 8.361800000
    48   1 4.994585740 8.524800000 8.857540000
    49   1 5.542625740 10.562230000 10.980410000
    50   1 12.799805740 6.227530000 8.407980000
    51   1 7.306845740 6.962710000 7.903010000
    52   1 10.793105740 9.251740000 4.662990000
    53   1 7.489355740 14.892030000 11.639810000
    54   1 14.277719860 7.598155162 8.163255171
    55   1 16.162194260 13.918327828 11.394162934
