ITEM: TIMESTEP
132
ITEM: NUMBER OF ATOMS
55
ITEM: BOX BOUNDS ss ss ss
4.04833 14.8402
5.95878 14.0022
4.71932 15.4854
ITEM: ATOMS id type x y z c_pea 
33 1 6.82806 9.17517 7.08608 -3.42291 
48 1 5.27836 8.23301 9.20146 -3.40831 
51 1 7.76938 7.4326 9.04945 -3.63452 
46 1 8.91617 7.58439 6.45372 -3.27182 
35 1 12.2175 8.80558 9.33512 -3.92188 
36 1 9.76248 9.53313 8.04153 -3.94039 
42 1 11.8485 7.99865 6.73808 -3.544 
47 1 10.3124 6.63953 8.60153 -3.53769 
52 1 10.2981 8.73605 4.72038 -2.87985 
41 1 13.7069 9.94289 6.96184 -3.15119 
50 1 12.9341 6.20515 8.58891 -3.156 
54 1 14.676 7.99558 8.1686 -3.08505 
45 1 7.39507 10.2947 9.51839 -3.92219 
37 1 7.10117 11.9964 7.46759 -3.34 
40 1 4.93507 10.7216 8.17923 -3.16366 
43 1 5.79975 12.6371 9.95808 -3.4138 
32 1 8.29077 13.3103 9.69033 -3.49488 
44 1 8.65347 10.4968 5.74975 -3.30768 
38 1 9.71788 12.2771 7.65409 -3.48039 
39 1 11.327 10.6799 5.98239 -3.31859 
31 1 12.1632 11.4651 8.41627 -3.61079 
24 1 14.6073 10.3374 9.60138 -3.53741 
28 1 11.1659 13.5748 9.78212 -3.40779 
30 1 13.8017 13.0605 9.8447 -3.16005 
5 1 6.88238 8.82004 14.748 -3.45376 
6 1 7.83865 6.61429 13.39 -3.44769 
17 1 6.19631 6.19827 11.0519 -3.29327 
18 1 4.04957 7.84127 11.4746 -3.14451 
19 1 4.77416 9.71603 13.3719 -3.37526 
20 1 5.26721 7.02538 13.5244 -3.14553 
21 1 6.80051 8.6385 11.7148 -3.91168 
7 1 9.11569 9.24049 13.1324 -3.75021 
9 1 8.94254 5.95976 11.0665 -3.38009 
14 1 9.23093 7.85844 15.4844 -3.15584 
22 1 14.1438 7.54477 10.7014 -3.3 
4 1 10.4729 6.84853 13.3189 -3.3888 
15 1 11.2837 9.35188 14.8368 -3.29564 
16 1 9.7636 8.45856 10.6955 -3.84546 
23 1 11.6829 6.37282 10.942 -3.44249 
26 1 12.1265 8.70512 12.3847 -3.69292 
27 1 14.7038 9.58824 12.2043 -3.18912 
8 1 6.42472 11.4427 14.6292 -3.24753 
10 1 7.57245 11.3909 12.1083 -3.92553 
11 1 5.04785 12.3554 12.5932 -3.20491 
12 1 7.0053 14.0012 12.0517 -3.20442 
49 1 4.73141 10.369 10.8055 -3.49188 
2 1 8.39869 13.028 14.1665 -3.21453 
13 1 8.90707 10.6422 15.3916 -3.34842 
34 1 9.87452 11.2398 10.4343 -3.88177 
53 1 9.68279 13.7326 11.9657 -3.41046 
3 1 10.5574 11.5465 13.2679 -3.70854 
29 1 12.4622 11.0318 11.1308 -3.70691 
1 1 13.1515 11.0794 13.7831 -3.29511 
25 1 12.4264 13.4111 12.2491 -3.32661 
55 1 14.8389 12.1499 11.9749 -3.12076 
