/var/folders/35/zn93tsdx7p13vbrdj0l0gn9r0000gn/T/LAMMPS-isc1wcul/data.lammps (written by ASE) 

5 	 atoms 
1  atom types
0.0 10.000000000  xlo xhi
0.0 10.000000000  ylo yhi
0.0 10.000000000  zlo zhi


Atoms 

     1   1 5.777249333 6.680839645 5.117830147
     2   1 4.148689357 5.276420870 6.300979802
     3   1 4.185248259 5.465412075 3.699020198
     4   1 3.867232270 3.319160355 4.846748935
     5   1 6.132767730 4.258167909 4.946771370
