ITEM: TIMESTEP
2
ITEM: NUMBER OF ATOMS
5
ITEM: BOX BOUNDS pp pp pp
0 10
0 10
0 10
ITEM: ATOMS id type x y z c_pea 
4 1 3.86721 3.31915 4.84675 -2.57482 
5 1 6.13279 4.25818 4.94677 -2.76121 
3 1 4.18525 5.46541 3.69902 -2.76121 
2 1 4.14868 5.27641 6.30098 -2.76121 
1 1 5.77726 6.68084 5.11782 -2.57482 
