/var/folders/35/zn93tsdx7p13vbrdj0l0gn9r0000gn/T/LAMMPS-ruwrcdk1/data.lammps (written by ASE) 

5 	 atoms 
1  atom types
0.0 10.000000000  xlo xhi
0.0 10.000000000  ylo yhi
0.0 10.000000000  zlo zhi


Atoms 

     1   1 5.222137655 2.493341581 4.501222563
     2   1 2.897606756 7.506658419 6.208918220
     3   1 6.005799200 3.869336938 6.204788205
     4   1 7.102393244 3.459296688 4.197860112
     5   1 5.757620385 3.323567039 3.791081780
