ITEM: TIMESTEP
64
ITEM: NUMBER OF ATOMS
5
ITEM: BOX BOUNDS pp pp pp
0 10
0 10
0 10
ITEM: ATOMS id type x y z c_pea 
4 1 7.08949 3.23763 4.67348 -2.57482 
5 1 5.49978 4.78991 3.63036 -2.7612 
1 1 4.71645 2.79352 5.11609 -2.76123 
3 1 5.97499 4.80763 6.19587 -2.7612 
2 1 3.70485 5.02351 5.28808 -2.57481 
