/var/folders/35/zn93tsdx7p13vbrdj0l0gn9r0000gn/T/LAMMPS-oiasu10q/data.lammps (written by ASE) 

55 	 atoms 
1  atom types
0.0 20.000000000  xlo xhi
0.0 20.000000000  ylo yhi
0.0 20.000000000  zlo zhi


Atoms 

     1   1 9.877726455 13.853147091 13.021072727
     2   1 11.725466455 12.444347091 14.425372727
     3   1 9.210906455 11.782147091 14.932072727
     4   1 10.813766455 15.038247091 10.868172727
     5   1 8.150846455 14.510747091 10.868272727
     6   1 7.723046455 12.343647091 12.750272727
     7   1 12.202966455 12.945047091 11.651172727
     8   1 11.043666455 9.738337091 14.668772727
     9   1 10.264856455 11.152147091 12.597872727
    10   1 13.211466455 10.763647091 13.000572727
    11   1 12.895666455 14.184747091 9.222272727
    12   1 8.286086455 9.454537091 13.732572727
    13   1 10.213236455 14.513247091 8.441312727
    14   1 9.551026455 12.494947091 10.270272727
    15   1 6.018206455 10.359647091 12.409972727
    16   1 6.568966455 12.241847091 10.327272727
    17   1 14.169766455 11.657947091 10.332772727
    18   1 7.648056455 13.508447091 8.244082727
    19   1 10.171346455 7.263007091 14.341272727
    20   1 8.265066455 10.143547091 10.949872727
    21   1 12.556166455 8.128527091 13.044272727
    22   1 11.837166455 11.881147091 8.887792727
    23   1 11.869466455 10.055347091 10.775872727
    24   1 9.164726455 14.160747091 6.002602727
    25   1 10.047516455 8.321947091 11.999072727
    26   1 11.899666455 13.474547091 6.573822727
    27   1 14.330666455 8.961817091 11.126372727
    28   1 14.063066455 12.228547091 7.621592727
    29   1 6.209715000 6.966192909 7.744807273
    30   1 8.547025000 6.980152909 6.380757273
    31   1 12.984935000 7.351202909 7.262997273
    32   1 7.688615000 9.365392909 7.142617273
    33   1 9.708705000 9.700692909 5.274697273
    34   1 10.491135000 8.398272909 7.388747273
    35   1 11.489635000 11.069222909 7.475867273
    36   1 8.809065000 11.829422909 6.541507273
    37   1 11.077035000 12.094022909 5.067927273
    38   1 12.362835000 9.480192909 5.522927273
    39   1 14.251435000 9.836552909 7.429927273
    40   1 13.552635000 11.919822909 5.890147273
    41   1 5.188665000 7.281032909 10.192747273
    42   1 6.607785000 5.144882909 9.845447273
    43   1 8.216445000 4.961752909 7.969957273
    44   1 9.292115000 5.338752909 10.734147273
    45   1 10.594535000 5.943062909 8.356487273
    46   1 8.240195000 7.426382909 9.271117273
    47   1 10.578135000 7.717402909 10.650547273
    48   1 12.792035000 6.215532909 9.753977273
    49   1 14.811335000 7.835192909 9.196327273
    50   1 13.398635000 8.103012909 11.606747273
    51   1 6.392045000 9.465472909 9.541867273
    52   1 9.394185000 10.100482909 9.219567273
    53   1 12.396835000 9.089522909 9.268507273
    54   1 7.129355000 6.717352909 11.889647273
    55   1 11.735235000 5.946592909 12.200047273
