ITEM: TIMESTEP
120
ITEM: NUMBER OF ATOMS
55
ITEM: BOX BOUNDS pp pp pp
0 20
0 20
0 20
ITEM: ATOMS id type x y z c_pea 
35 1 7.27299 7.01608 7.03495 -3.3582 
31 1 9.42514 5.65059 6.26274 -3.16346 
38 1 11.7083 7.25669 6.02238 -3.43121 
51 1 9.63676 7.77258 7.98648 -3.83694 
33 1 7.61939 9.61453 6.38071 -3.433 
36 1 10.7012 9.81321 6.64936 -3.61619 
37 1 9.26579 8.03825 5.06265 -3.40884 
39 1 11.5695 9.24109 4.21769 -3.13318 
42 1 9.41967 10.9764 4.74188 -3.28454 
40 1 13.3423 9.65672 6.51387 -3.40049 
43 1 12.1251 11.6175 5.10847 -3.18041 
41 1 7.82704 12.2256 6.57022 -3.20414 
44 1 10.4809 12.6005 6.94012 -3.57578 
46 1 13.3452 12.2725 7.41415 -3.29337 
17 1 6.86423 5.55128 11.4836 -3.18022 
48 1 5.97913 6.37368 9.18219 -3.15179 
27 1 8.19355 7.49962 10.2199 -3.69062 
21 1 10.8692 6.45801 10.4772 -3.52528 
32 1 11.2561 5.53402 8.06653 -3.16673 
47 1 8.61256 5.29082 8.89735 -3.40683 
34 1 6.41424 9.09539 8.8063 -3.57041 
20 1 5.77152 8.09577 11.3548 -3.5194 
25 1 7.76321 10.3001 10.9933 -3.76307 
24 1 5.39896 10.9561 11.4291 -3.16029 
54 1 6.48628 11.8235 8.99181 -3.37546 
29 1 10.4283 9.10158 10.5412 -3.93673 
49 1 11.7501 10.9041 8.88605 -3.77779 
50 1 8.88714 10.6494 8.52254 -3.85829 
22 1 13.1136 8.33589 11.1436 -3.46287 
18 1 14.9164 10.2777 11.6572 -3.14684 
52 1 12.3591 8.05823 8.57103 -3.66801 
53 1 14.2412 10.0377 9.11729 -3.38639 
16 1 12.2931 10.9128 11.583 -3.68997 
23 1 7.39751 13.0861 11.2346 -3.45873 
28 1 9.90956 12.0995 10.7231 -3.80906 
19 1 11.9564 13.6388 11.9516 -3.47839 
30 1 9.66537 14.7425 10.9348 -3.14664 
45 1 11.5715 13.6879 9.2056 -3.47835 
55 1 8.65476 13.5351 8.77089 -3.4534 
26 1 13.8863 12.5249 10.162 -3.43457 
8 1 6.80932 6.77035 13.8563 -3.20159 
1 1 9.36541 7.11948 14.9069 -3.1795 
7 1 9.21964 5.84797 12.5116 -3.32785 
9 1 11.1774 7.8591 12.9926 -3.6242 
15 1 5.92426 9.36919 13.5995 -3.25306 
11 1 7.3862 11.5513 13.4867 -3.52713 
4 1 8.08533 9.42666 15.2211 -3.37589 
2 1 9.38346 11.7289 15.4143 -3.16222 
3 1 10.8481 9.41609 15.2734 -3.33599 
13 1 9.96569 10.5408 13.0576 -3.80063 
14 1 8.40695 8.39439 12.7554 -3.61743 
6 1 13.1225 9.69447 13.7355 -3.36437 
5 1 11.8177 12.0443 14.2873 -3.42968 
10 1 9.50287 13.313 13.2072 -3.46404 
12 1 14.1066 12.3218 12.9737 -3.13331 
