/tmp/LAMMPS-ld0ycx7e/data.lammps (written by ASE) 

55 	 atoms 
1  atom types
5.099264999999998 14.900735000000001  xlo xhi
4.521709999999999 15.478290000000001  ylo yhi
5.060499999999999 14.9395  zlo zhi


Atoms 

     1   1 10.663035000 13.416090000 13.141900000
     2   1 9.558855000 15.478290000 11.825300000
     3   1 7.885125000 13.629990000 13.089200000
     4   1 7.392045000 10.960890000 12.822200000
     5   1 9.179525000 12.818790000 10.881700000
     6   1 7.321685000 14.948890000 10.790400000
     7   1 6.260185000 12.468090000 11.052500000
     8   1 5.973065000 9.540370000 10.811000000
     9   1 8.050725000 10.590780000 9.791660000
    10   1 5.416795000 11.316390000 8.789000000
    11   1 9.634575000 12.281790000 8.129280000
    12   1 11.684035000 10.658380000 7.603590000
    13   1 11.954035000 9.987810000 5.060500000
    14   1 7.858435000 6.979640000 6.862530000
    15   1 10.987735000 12.705590000 5.828280000
    16   1 7.245805000 13.375690000 8.728750000
    17   1 7.346125000 11.416290000 6.861160000
    18   1 9.116735000 9.323420000 7.546930000
    19   1 13.437335000 12.159790000 6.037040000
    20   1 9.630455000 14.820790000 9.163150000
    21   1 6.285915000 8.925450000 8.032200000
    22   1 7.282565000 9.083440000 5.417270000
    23   1 5.099265000 10.355420000 6.281990000
    24   1 9.935815000 8.019790000 5.433280000
    25   1 7.527585000 6.436680000 13.331300000
    26   1 8.974545000 11.313890000 14.939500000
    27   1 10.071235000 6.917750000 13.850300000
    28   1 9.290295000 4.521710000 12.257200000
    29   1 9.498735000 10.518090000 12.281100000
    30   1 6.943015000 5.673520000 11.023200000
    31   1 11.266735000 12.174590000 13.566500000
    32   1 11.982535000 5.701090000 12.453000000
    33   1 7.747465000 8.564780000 11.416100000
    34   1 9.684535000 6.689620000 11.063700000
    35   1 8.177205000 8.857680000 14.226000000
    36   1 12.473035000 6.912200000 10.062380000
    37   1 10.861535000 9.516360000 14.596400000
    38   1 12.160635000 11.223390000 11.166100000
    39   1 12.681035000 7.495460000 14.305300000
    40   1 14.682935000 10.196390000 11.201900000
    41   1 11.532135000 8.599400000 12.061500000
    42   1 14.672835000 12.798790000 10.599700000
    43   1 13.317635000 10.008490000 13.574200000
    44   1 14.099335000 7.725350000 12.043000000
    45   1 13.892035000 12.461890000 12.979900000
    46   1 14.267235000 9.102530000 6.863550000
    47   1 12.701535000 9.576240000 9.088920000
    48   1 14.900735000 8.181050000 9.350140000
    49   1 14.864735000 11.023590000 8.594670000
    50   1 10.402935000 6.557280000 8.229980000
    51   1 13.096835000 6.956410000 7.580910000
    52   1 10.132635000 8.912430000 9.624420000
    53   1 11.165235000 4.559160000 10.171300000
    54   1 11.398935000 8.834370000 6.818500000
    55   1 8.748495000 4.676410000 9.445090000
