ITEM: TIMESTEP
160
ITEM: NUMBER OF ATOMS
55
ITEM: BOX BOUNDS ss ss ss
5.13517 15.3559
4.64814 15.2134
5.1258 14.9615
ITEM: ATOMS id type x y z c_pea 
14 1 8.01707 8.25148 8.63036 -3.812 
18 1 9.86491 9.6046 5.12679 -3.39932 
21 1 5.46289 8.70561 9.61225 -3.21143 
22 1 7.49293 9.08533 6.02716 -3.19489 
24 1 9.35311 7.18437 6.50837 -3.40155 
55 1 8.84636 5.6156 8.7089 -3.31464 
13 1 12.6199 9.85282 5.31594 -3.13216 
46 1 13.7018 8.13555 7.43216 -3.51902 
47 1 12.9495 9.21739 9.79214 -3.88156 
48 1 15.3471 7.95253 9.86325 -3.11404 
50 1 11.6164 6.11558 7.56574 -3.42099 
51 1 11.7586 7.4943 5.33995 -3.12631 
54 1 11.1219 9.04289 7.4919 -3.86231 
34 1 10.6089 7.30218 9.76149 -3.83336 
36 1 13.2224 6.40374 9.75083 -3.47651 
53 1 11.1033 4.64924 9.79799 -3.1568 
52 1 10.2382 10.0453 9.88728 -3.80841 
9 1 8.87641 10.7848 7.78506 -3.69187 
11 1 9.24211 13.4876 7.49646 -3.32704 
16 1 6.8323 12.7213 8.52458 -3.492 
17 1 7.91662 11.7645 5.74046 -3.13155 
20 1 7.90438 14.9887 9.21681 -2.98417 
23 1 6.06995 10.3981 7.75605 -3.34398 
12 1 11.4622 12.4553 8.89339 -3.57401 
15 1 10.9042 11.7678 6.24167 -3.42513 
19 1 13.224 10.9731 7.58946 -3.45556 
49 1 15.3549 10.2425 8.85787 -3.1228 
42 1 13.9537 12.2675 9.98541 -3.32586 
8 1 5.97719 8.93663 12.1216 -3.41989 
25 1 7.13857 6.63448 13.0648 -3.15557 
28 1 9.12189 5.52409 11.4586 -3.47754 
30 1 6.7951 6.53688 10.4188 -3.31221 
33 1 8.57663 8.2456 11.484 -3.83298 
35 1 7.90718 9.05964 14.0888 -3.47493 
27 1 9.7405 6.98626 13.7579 -3.47074 
32 1 11.7705 5.9325 12.0877 -3.464 
37 1 10.5978 9.51346 14.6992 -3.48109 
39 1 12.3603 7.45908 14.329 -3.14861 
41 1 11.3104 8.61505 12.1649 -3.81478 
44 1 13.9047 7.75822 12.1245 -3.46585 
10 1 5.13615 11.314 10.475 -3.18152 
2 1 9.14869 15.2123 11.3455 -2.9668 
3 1 8.90381 13.3611 13.0924 -3.42824 
4 1 6.79854 11.3971 12.9187 -3.47115 
5 1 9.22134 12.7514 10.2593 -3.80509 
6 1 6.82113 13.4449 11.1907 -3.42257 
7 1 7.49151 10.5487 10.3045 -3.80609 
26 1 8.74659 11.4717 14.9605 -3.14394 
29 1 9.42392 10.7891 12.4672 -3.83234 
1 1 11.3818 13.7287 11.7026 -3.37785 
31 1 11.3006 12.1395 13.9992 -3.46315 
38 1 12.0398 11.2111 11.4853 -3.61798 
40 1 14.8121 10.2639 11.5525 -3.45207 
43 1 13.157 10.0296 13.736 -3.47198 
45 1 13.7667 12.5736 12.7578 -3.10804 
