/var/folders/35/zn93tsdx7p13vbrdj0l0gn9r0000gn/T/LAMMPS-mayov7cp/data.lammps (written by ASE) 

55 	 atoms 
1  atom types
0.0 20.000000000  xlo xhi
0.0 20.000000000  ylo yhi
0.0 20.000000000  zlo zhi


Atoms 

     1   1 9.624077091 6.692555182 6.782627091
     2   1 11.640217091 8.412675182 6.484627091
     3   1 10.406417091 11.069815182 6.734137091
     4   1 9.018617091 8.943095182 5.602177091
     5   1 11.156517091 9.992525182 4.317127091
     6   1 9.017617091 11.565715182 4.629227091
     7   1 11.629117091 12.519015182 4.880867091
     8   1 13.173317091 10.552115182 6.104807091
     9   1 8.055697091 13.024615182 6.610437091
    10   1 10.465617091 13.854015182 6.897247091
    11   1 12.949917091 12.949615182 7.294187091
    12   1 10.885717091 5.939935182 11.236187091
    13   1 11.521517091 6.765805182 8.727197091
    14   1 9.856417091 8.930465182 8.542507091
    15   1 9.390527091 12.017715182 9.082187091
    16   1 11.612517091 11.499515182 11.275787091
    17   1 11.886917091 8.609595182 10.690887091
    18   1 12.100517091 10.811215182 8.766667091
    19   1 14.134817091 10.208295182 10.667787091
    20   1 13.543317091 8.643725182 8.386417091
    21   1 14.745817091 11.079615182 8.201027091
    22   1 11.382917091 13.804315182 9.445787091
    23   1 13.783417091 12.838415182 10.013487091
    24   1 12.013517091 7.417145182 13.149887091
    25   1 13.015917091 9.783675182 13.145887091
    26   1 13.948717091 12.192515182 12.579487091
    27   1 11.995617091 13.956215182 12.197187091
    28   1 6.141612909 10.075465000 7.129642909
    29   1 6.827212909 12.574165000 8.181932909
    30   1 6.563002909 7.798725000 8.847152909
    31   1 6.484712909 6.540835000 11.378772909
    32   1 7.781112909 5.368935000 9.620232909
    33   1 8.912412909 7.773335000 10.504272909
    34   1 9.017292909 5.749875000 12.185872909
    35   1 5.521682909 10.774265000 9.557322909
    36   1 6.640962909 9.183275000 11.350772909
    37   1 7.882472909 11.702965000 10.978072909
    38   1 5.254182909 11.498565000 12.054472909
    39   1 8.184672909 9.858025000 8.842332909
    40   1 6.125082909 13.577865000 10.697572909
    41   1 10.495522909 12.926765000 10.871072909
    42   1 8.369852909 14.534965000 9.411772909
    43   1 8.427122909 14.610265000 12.043972909
    44   1 7.682282909 7.680215000 13.456772909
    45   1 10.331622909 7.687405000 14.098472909
    46   1 7.061162909 10.484585000 13.757772909
    47   1 9.387122909 9.597995000 12.513872909
    48   1 8.640372909 9.230805000 15.427372909
    49   1 9.406752909 12.218565000 13.263472909
    50   1 10.832622909 10.459615000 14.877772909
    51   1 8.461842909 11.917365000 15.682872909
    52   1 6.770942909 13.126365000 13.483572909
    53   1 11.014022909 14.631065000 13.092372909
    54   1 8.791992909 14.440265000 14.732172909
    55   1 10.933522909 13.089765000 15.352672909
