ITEM: TIMESTEP
90
ITEM: NUMBER OF ATOMS
55
ITEM: BOX BOUNDS pp pp pp
0 20
0 20
0 20
ITEM: ATOMS id type x y z c_pea 
1 1 8.62647 7.55916 7.56444 -3.47171 
28 1 6.45906 9.49068 7.09739 -3.22347 
9 1 7.90662 11.9501 7.32244 -3.61407 
2 1 11.271 8.49698 6.5002 -3.43105 
3 1 10.7289 11.3852 7.18378 -3.53082 
4 1 8.90385 9.78566 5.9776 -3.46638 
5 1 11.2822 10.6117 4.72125 -3.14196 
8 1 13.2857 10.3565 6.49591 -3.45193 
6 1 9.5223 12.5065 5.1535 -3.12619 
10 1 9.81249 13.9818 7.43215 -3.4267 
7 1 12.1896 13.0339 5.94109 -3.25132 
11 1 14.225 12.5698 7.6509 -3.19006 
30 1 6.4752 7.44668 9.03781 -3.41699 
31 1 6.60698 6.20849 11.3306 -3.15745 
32 1 8.64724 5.5402 9.59693 -3.25829 
12 1 11.0744 5.95697 11.2632 -3.3016 
13 1 10.9958 6.73638 8.77623 -3.47084 
33 1 8.82269 7.7929 10.7655 -3.86324 
24 1 13.4857 7.05881 10.9273 -3.08503 
35 1 4.87704 9.63104 9.30179 -3.18351 
36 1 6.25019 8.9589 11.4599 -3.61015 
37 1 7.37286 11.8519 11.1834 -3.69439 
39 1 7.66278 9.97549 9.29168 -3.76075 
38 1 4.88048 11.3087 11.5635 -3.24537 
14 1 10.1823 9.33177 8.7709 -3.70484 
16 1 11.6244 11.2881 11.6365 -3.73699 
17 1 11.4988 8.66805 10.9791 -3.71621 
18 1 12.525 10.869 9.12189 -3.71741 
19 1 14.2 9.69766 11.0373 -3.51197 
20 1 13.1786 8.32814 8.5672 -3.52557 
21 1 15.0976 10.3136 8.60165 -3.14574 
29 1 5.71502 12.036 8.96089 -3.40551 
40 1 5.59002 13.8458 11.0425 -3.16881 
42 1 7.68131 13.9457 9.29224 -3.51342 
43 1 7.88923 15.066 11.8213 -3.39417 
15 1 9.74541 12.1102 9.6159 -3.93502 
41 1 10.1 14.8704 10.1242 -3.46199 
22 1 12.1081 13.5789 8.8172 -3.57453 
23 1 14.2662 12.3625 10.4554 -3.39248 
27 1 12.3353 13.8741 11.5646 -3.46673 
44 1 7.63659 7.73024 13.3837 -3.41917 
34 1 8.83913 5.54334 12.4098 -3.14654 
45 1 10.4155 7.71387 13.3323 -3.57376 
46 1 6.76727 10.4698 13.6418 -3.45218 
47 1 9.15272 10.0461 12.3261 -3.95062 
48 1 8.92544 9.29295 14.9985 -3.16099 
50 1 11.2477 10.4136 14.2047 -3.49554 
51 1 8.9341 11.8885 14.6011 -3.46835 
25 1 13.0067 8.76668 13.165 -3.26268 
26 1 13.6433 11.5673 13.0981 -3.23116 
52 1 6.74036 13.1751 13.4176 -3.38858 
49 1 9.56547 13.0294 12.2055 -3.71171 
53 1 10.5596 15.5008 12.703 -3.13964 
54 1 8.89505 14.5261 14.365 -3.1348 
55 1 11.4677 13.1419 14.0407 -3.40229 
