/tmp/LAMMPS-sv67c2pb/data.lammps (written by ASE) 

55 	 atoms 
1  atom types
4.53823049919642 15.46176950080358  xlo xhi
4.8200019859073535 15.179998014092646  ylo yhi
4.712865 15.287135  zlo zhi


Atoms 

     1   1 10.293869501 12.860998014 13.628735000
     2   1 6.604229501 10.306578014 8.178535000
     3   1 6.746599501 7.643418014 8.358475000
     4   1 12.930169501 13.381298014 13.707735000
     5   1 12.256069501 12.230998014 11.288735000
     6   1 11.857869501 13.533698014 4.998085000
     7   1 12.985969501 12.611498014 8.548765000
     8   1 13.955169501 14.205998014 6.572435000
     9   1 13.292869501 11.588698014 5.925845000
    10   1 14.174669501 14.109998014 11.529335000
    11   1 11.547769501 14.810098014 7.259055000
    12   1 9.209369501 9.059758014 7.594375000
    13   1 10.875269501 10.999398014 4.712865000
    14   1 10.647489501 12.257898014 7.001765000
    15   1 8.445859501 9.233358014 10.086935000
    16   1 8.447029501 11.081398014 6.043015000
    17   1 9.663589501 8.693738014 5.046335000
    18   1 8.544329501 11.933498014 8.858805000
    19   1 10.956069501 10.721298014 9.246465000
    20   1 12.768269501 15.179998014 9.577735000
    21   1 15.461769501 12.080198014 7.447905000
    22   1 10.533169501 13.650898014 9.509735000
    23   1 5.776629501 9.023968014 10.461835000
    24   1 15.155469501 14.310598014 8.959055000
    25   1 9.744699501 10.973498014 11.742035000
    26   1 6.912079501 11.434098014 10.908535000
    27   1 7.758759501 11.929498014 13.407635000
    28   1 8.770129501 13.455798014 11.444835000
    29   1 7.009779501 8.903948014 5.907595000
    30   1 11.368569501 14.670398014 11.903935000
    31   1 13.471369501 11.068528014 12.755635000
    32   1 12.628369501 9.699088014 5.898895000
    33   1 9.170089501 6.537368014 7.722495000
    34   1 13.208369501 8.489838014 8.153105000
    35   1 11.517169501 9.262958014 13.784335000
    36   1 13.630369501 7.244678014 10.415435000
    37   1 11.251869501 7.201658014 11.898935000
    38   1 9.127309501 7.938568014 10.005645000
    39   1 6.783859501 7.617748014 8.400945000
    40   1 11.403969501 6.785468014 9.108335000
    41   1 9.029079501 9.301048014 14.891435000
    42   1 13.688269501 8.464938014 12.569835000
    43   1 10.457769501 9.209238014 7.955495000
    44   1 6.682329501 9.396668014 13.482335000
    45   1 11.171169501 7.483708014 6.230685000
    46   1 10.568769501 11.347188014 15.287135000
    47   1 14.247869501 9.997008014 10.287625000
    48   1 11.787869501 9.392918014 10.687035000
    49   1 6.646629501 8.417708014 10.947635000
    50   1 9.215679501 9.264068014 12.293235000
    51   1 11.700733893 4.820001986 13.464002194
    52   1 4.538230499 5.940959067 7.618245383
    53   1 4.586369805 5.892416202 7.681591696
    54   1 15.069863859 14.356500979 7.581527203
    55   1 7.742116383 5.429515246 10.335939164
