/tmp/LAMMPS-5ylpsykk/data.lammps (written by ASE) 

55 	 atoms 
1  atom types
4.8017199999999995 15.19828  xlo xhi
4.689170000000001 15.31083  ylo yhi
5.474705 14.525295  zlo zhi


Atoms 

     1   1 9.208550000 14.938530000 11.300695000
     2   1 11.348880000 15.310830000 12.705295000
     3   1 13.820680000 12.813930000 9.549895000
     4   1 10.931980000 12.829630000 11.940595000
     5   1 11.565680000 7.301380000 13.072195000
     6   1 8.185020000 9.259290000 12.507395000
     7   1 8.982290000 6.944550000 13.536695000
     8   1 10.709780000 10.082230000 12.283595000
     9   1 8.855280000 11.117330000 14.486395000
    10   1 9.434600000 13.809230000 13.989195000
    11   1 12.766680000 8.865130000 10.974795000
    12   1 8.220090000 12.201630000 12.072095000
    13   1 6.088820000 10.464730000 13.437995000
    14   1 6.879470000 12.814730000 14.525295000
    15   1 11.483480000 11.698830000 14.316595000
    16   1 15.198280000 9.411830000 12.379695000
    17   1 14.099480000 7.053540000 12.710995000
    18   1 12.988680000 9.428630000 13.887895000
    19   1 5.410310000 12.786830000 12.338195000
    20   1 9.411460000 13.067530000 9.383155000
    21   1 11.684080000 14.486730000 9.936525000
    22   1 11.754880000 12.887830000 7.668845000
    23   1 6.293290000 10.877530000 10.653895000
    24   1 7.111610000 11.891330000 8.377445000
    25   1 8.973410000 10.348830000 9.930395000
    26   1 4.801720000 8.907840000 11.531195000
    27   1 6.338590000 7.357600000 12.800995000
    28   1 6.877980000 13.735930000 10.302095000
    29   1 6.895200000 6.870840000 11.662195000
    30   1 6.305940000 9.120830000 8.093355000
    31   1 7.584670000 10.556630000 5.775555000
    32   1 8.186550000 12.828330000 7.340125000
    33   1 8.382480000 8.708420000 10.251315000
    34   1 9.692580000 4.838430000 8.305475000
    35   1 10.163980000 7.706020000 8.042725000
    36   1 7.790600000 5.209610000 6.495915000
    37   1 9.064910000 10.174230000 7.874015000
    38   1 12.335880000 7.730750000 6.315525000
    39   1 7.664370000 6.609140000 8.752965000
    40   1 10.196780000 6.156100000 5.941915000
    41   1 10.086380000 11.668230000 5.851525000
    42   1 8.002280000 4.689170000 10.468795000
    43   1 12.106880000 5.931320000 8.257155000
    44   1 10.154680000 9.038230000 5.474705000
    45   1 7.920470000 7.861940000 6.207075000
    46   1 8.985140000 5.426940000 12.810995000
    47   1 12.877580000 6.557800000 10.738095000
    48   1 11.719580000 5.433230000 13.055895000
    49   1 11.774680000 10.152630000 7.444735000
    50   1 10.127080000 6.366820000 10.601395000
    51   1 11.258480000 8.938720000 10.204885000
    52   1 13.362880000 8.347900000 8.710795000
    53   1 11.735087027 10.281330000 10.024601184
    54   1 13.861795450 11.314430000 12.299063388
    55   1 14.267357523 11.438230000 9.473310428
