ITEM: TIMESTEP
172
ITEM: NUMBER OF ATOMS
55
ITEM: BOX BOUNDS ss ss ss
5.86505 14.8814
4.60102 14.7173
5.16585 14.6055
ITEM: ATOMS id type x y z c_pea 
34 1 10.3177 5.25547 7.71373 -3.3722 
36 1 7.6249 5.70245 7.02892 -3.15555 
39 1 6.5315 7.09276 9.0618 -3.37568 
45 1 7.64961 8.36571 6.25957 -3.38186 
35 1 9.07449 7.53193 8.39612 -3.8023 
40 1 9.54651 6.67612 5.57881 -3.15367 
44 1 10.0377 9.26793 5.16675 -3.29301 
42 1 8.19916 5.00558 9.55695 -3.44743 
38 1 11.4931 7.77907 7.0054 -3.59213 
43 1 12.7947 5.935 8.56705 -3.19063 
52 1 13.6327 8.5553 8.40309 -3.34384 
30 1 7.07691 9.80219 8.4518 -3.67192 
20 1 8.82619 12.0699 9.33462 -3.77619 
24 1 6.52392 12.3617 7.76512 -3.18094 
31 1 7.9644 11.0669 5.99033 -3.34299 
32 1 8.91547 13.4277 7.1334 -3.30582 
37 1 9.82465 10.1096 7.64867 -3.8244 
21 1 10.2088 14.3804 9.53994 -3.39992 
28 1 7.09832 14.0341 9.68058 -3.23461 
22 1 11.4578 12.5911 7.96725 -3.54986 
41 1 10.4769 11.8561 5.59573 -3.17936 
49 1 12.4352 10.3547 6.78894 -3.41628 
55 1 14.0314 11.229 9.00607 -3.18982 
53 1 11.745 10.4235 9.62486 -3.8033 
25 1 9.12053 9.63476 10.4146 -3.85067 
6 1 8.37641 9.19356 13.2893 -3.72966 
7 1 8.41644 6.5564 13.8611 -3.30324 
26 1 6.52183 8.86909 11.0639 -3.61843 
27 1 6.12406 7.86032 13.459 -3.04521 
29 1 6.55833 6.01185 11.654 -3.28607 
33 1 8.85988 7.14275 11.2304 -3.77629 
46 1 8.85196 4.60209 12.1458 -3.15577 
5 1 10.623 8.26209 14.6046 -3.30536 
11 1 13.8238 8.85492 10.9828 -3.53667 
17 1 13.1533 7.74236 13.462 -3.33141 
47 1 13.2169 6.23611 11.1841 -3.23872 
48 1 10.971 6.35927 12.7399 -3.54793 
50 1 10.8367 5.04488 10.3379 -3.47439 
51 1 11.3665 7.70948 9.93297 -3.84822 
8 1 11.2568 9.33852 12.2445 -3.92993 
1 1 8.65255 14.4269 11.6648 -3.35009 
9 1 10.1408 11.0132 14.2613 -3.54636 
10 1 9.55816 13.5511 13.8867 -3.315 
12 1 8.22123 11.6381 12.0616 -3.6418 
13 1 5.86609 10.5985 13.0078 -3.29355 
14 1 7.53332 11.8963 14.5537 -3.12345 
19 1 6.32357 13.3177 12.4592 -3.17049 
23 1 6.1016 11.5752 10.3592 -3.49675 
3 1 12.7447 13.3555 10.1769 -3.32053 
16 1 14.8803 9.66259 13.2289 -2.84087 
18 1 12.6925 10.241 14.3964 -3.32192 
2 1 11.3181 14.7162 12.047 -3.17632 
4 1 10.7402 12.1816 11.5276 -3.83433 
15 1 12.1707 12.8211 13.7235 -3.24312 
54 1 13.4208 11.3625 11.8473 -3.56138 
