/var/folders/35/zn93tsdx7p13vbrdj0l0gn9r0000gn/T/LAMMPS-j2fh1t5n/data.lammps (written by ASE) 

5 	 atoms 
1  atom types
0.0 10.000000000  xlo xhi
0.0 10.000000000  ylo yhi
0.0 10.000000000  zlo zhi


Atoms 

     1   1 3.916698852 5.803130000 3.702090000
     2   1 4.466138852 3.935380000 5.196890000
     3   1 3.937958852 6.064620000 6.297910000
     4   1 4.905344504 3.935380000 5.173627111
     5   1 6.083301148 6.064620000 5.495554583
