/var/folders/35/zn93tsdx7p13vbrdj0l0gn9r0000gn/T/LAMMPS-x0l1y3_v/data.lammps (written by ASE) 

5 	 atoms 
1  atom types
0.0 10.000000000  xlo xhi
0.0 10.000000000  ylo yhi
0.0 10.000000000  zlo zhi


Atoms 

     1   1 4.683539222 4.479581386 6.911891795
     2   1 4.605813435 6.209967635 5.172797419
     3   1 6.278460307 4.210501650 5.065645807
     4   1 5.053654838 4.994093924 3.088108205
     5   1 3.721539693 3.790032365 4.761552011
