ITEM: TIMESTEP
2
ITEM: NUMBER OF ATOMS
5
ITEM: BOX BOUNDS pp pp pp
0 10
0 10
0 10
ITEM: ATOMS id type x y z c_pea 
5 1 3.72154 3.79003 4.76156 -2.76121 
4 1 5.05366 4.99409 3.08811 -2.57482 
1 1 4.68354 4.47958 6.91188 -2.57482 
3 1 6.27846 4.2105 5.06565 -2.76121 
2 1 4.60581 6.20997 5.1728 -2.76121 
