/var/folders/35/zn93tsdx7p13vbrdj0l0gn9r0000gn/T/LAMMPS-syh5rpv3/data.lammps (written by ASE) 

55 	 atoms 
1  atom types
0.0 20.000000000  xlo xhi
0.0 20.000000000  ylo yhi
0.0 20.000000000  zlo zhi


Atoms 

     1   1 9.237525000 12.050120000 15.029862091
     2   1 10.734775000 9.921520000 14.452162091
     3   1 9.532025000 7.593450000 14.298762091
     4   1 11.926675000 12.248020000 14.208162091
     5   1 13.636975000 10.208830000 13.834062091
     6   1 7.924775000 9.931850000 13.683862091
     7   1 10.046975000 14.112620000 13.509062091
     8   1 12.125575000 7.909410000 13.357062091
     9   1 7.265475000 12.573420000 13.278762091
    10   1 8.012335000 6.410990000 12.569162091
    11   1 9.784975000 11.726120000 12.438362091
    12   1 5.674625000 10.716220000 12.293562091
    13   1 10.554475000 5.933410000 12.241462091
    14   1 9.564955000 8.814000000 11.927962091
    15   1 13.267075000 5.980810000 11.901462091
    16   1 12.034775000 10.331490000 11.854962091
    17   1 12.280075000 13.242320000 11.799662091
    18   1 14.190675000 8.597250000 11.636062091
    19   1 8.175325000 14.277620000 11.551762091
    20   1 14.325375000 11.291420000 11.338162091
    21   1 6.838265000 8.501050000 11.328062091
    22   1 10.606775000 15.469620000 11.317262091
    23   1 5.768665000 12.893620000 10.759762091
    24   1 7.804535000 11.349920000 10.669962091
    25   1 6.486735000 5.732330000 10.648662091
    26   1 11.674075000 7.749950000 10.476562091
    27   1 9.017975000 4.530380000 10.454062091
    28   1 10.145775000 13.137720000 10.023062091
    29   1 8.256368455 7.279040000 6.590177909
    30   1 8.323938455 5.007490000 8.089497909
    31   1 10.499558455 5.701430000 6.944847909
    32   1 6.255508455 9.110570000 6.770327909
    33   1 6.037498455 11.351650000 8.117167909
    34   1 10.744358455 8.422830000 6.874987909
    35   1 8.688148455 9.933500000 5.783737909
    36   1 11.215658455 11.048350000 6.387747909
    37   1 13.032258455 9.435920000 7.975027909
    38   1 6.927238455 11.972650000 5.777277909
    39   1 8.822038455 12.076850000 7.703067909
    40   1 9.418448455 12.415150000 4.970137909
    41   1 8.241438455 14.339050000 6.283917909
    42   1 10.858558455 13.742950000 6.890297909
    43   1 12.672458455 12.251150000 8.347507909
    44   1 6.747188455 7.151320000 8.884607909
    45   1 9.627558455 7.229510000 9.093427909
    46   1 10.716758455 4.907770000 9.590637909
    47   1 12.419058455 6.758040000 8.437957909
    48   1 5.880848455 9.457800000 9.933247909
    49   1 8.201288455 9.479940000 8.462887909
    50   1 10.712658455 10.357950000 9.010377909
    51   1 14.297758455 8.017450000 9.894227909
    52   1 6.881098455 13.812250000 8.485777909
    53   1 10.345558455 12.989850000 9.793457909
    54   1 9.317578455 15.160150000 8.646987909
    55   1 12.058458455 14.906350000 8.963627909
