ITEM: TIMESTEP
128
ITEM: NUMBER OF ATOMS
55
ITEM: BOX BOUNDS pp pp pp
0 20
0 20
0 20
ITEM: ATOMS id type x y z c_pea 
42 1 9.50671 6.38569 7.46869 -3.39033 
51 1 8.9817 7.83504 5.08816 -3.25373 
7 1 11.343 6.89587 5.69269 -3.16171 
5 1 7.23656 9.98591 5.64307 -3.20685 
11 1 6.30878 11.667 7.48751 -3.11799 
8 1 7.52832 8.14155 7.3487 -3.4003 
43 1 11.8258 9.26441 4.48581 -3.24405 
1 1 9.40349 10.2552 4.20956 -3.18492 
48 1 11.186 11.9956 4.98208 -3.39408 
52 1 10.4662 9.36198 6.7245 -3.94725 
53 1 13.151 10.8656 6.39075 -3.55407 
55 1 13.3265 8.26723 6.56668 -3.27825 
22 1 8.60741 12.1857 6.0063 -3.48721 
33 1 10.8962 12.0178 7.72396 -3.85271 
34 1 10.2244 14.2313 6.26683 -3.14824 
54 1 12.8361 13.5919 6.61042 -3.38151 
27 1 7.56445 6.84902 9.6057 -3.39027 
20 1 6.09069 7.83107 11.5641 -3.16398 
29 1 10.1515 5.72819 10.0711 -3.43547 
12 1 12.7125 5.87667 10.8191 -3.00981 
21 1 12.0403 7.0304 8.50459 -3.5998 
41 1 6.13811 9.38978 9.32762 -3.45741 
44 1 6.7801 11.941 10.114 -3.588 
36 1 8.16719 9.56863 11.1516 -3.85112 
32 1 11.2687 8.02742 11.5016 -3.73941 
37 1 8.47448 10.5676 8.29366 -3.78308 
38 1 9.79502 8.39434 9.28983 -3.81277 
49 1 10.2577 11.2431 10.3782 -3.93323 
13 1 14.8772 10.8418 10.4385 -3.4072 
28 1 13.8586 8.21387 10.3152 -3.33509 
35 1 14.922 9.55198 8.16858 -3.19596 
47 1 12.3242 9.8392 8.91338 -3.9159 
46 1 12.6197 10.3402 11.7625 -3.58123 
17 1 7.48754 14.3685 10.8187 -3.00268 
31 1 10.1361 14.0633 10.794 -3.45308 
40 1 8.63735 13.385 8.55794 -3.63871 
26 1 11.304 14.7272 8.59949 -3.40832 
6 1 14.7374 12.2618 8.08471 -3.40616 
9 1 12.6776 12.5219 9.8379 -3.871 
3 1 13.9202 14.8327 8.69687 -3.15957 
15 1 12.8115 14.7298 11.1818 -3.26984 
18 1 15.2734 13.5456 10.4185 -3.13064 
19 1 8.68121 6.92768 12.0182 -3.52763 
39 1 10.1044 7.69055 14.125 -3.17042 
50 1 10.9343 5.6392 12.6613 -2.98854 
4 1 7.54384 8.70632 13.7169 -3.43977 
25 1 5.82024 10.3967 12.164 -3.35596 
30 1 7.24759 11.2611 14.3019 -3.28384 
23 1 10.0974 10.117 13.0622 -3.71423 
24 1 9.13529 9.78561 15.517 -2.99602 
45 1 6.03594 12.9839 12.5317 -2.98739 
2 1 8.55488 12.3294 12.2507 -3.66583 
14 1 11.3931 12.6572 12.6542 -3.51725 
16 1 9.68722 12.1799 14.7174 -3.0097 
10 1 13.9988 12.586 12.3811 -3.15431 
