ITEM: TIMESTEP
68
ITEM: NUMBER OF ATOMS
55
ITEM: BOX BOUNDS pp pp pp
0 20
0 20
0 20
ITEM: ATOMS id type x y z c_pea 
27 1 7.53521 7.26393 6.32404 -3.29887 
28 1 9.79907 6.69281 7.61389 -3.57387 
2 1 12.2873 7.74108 7.11539 -3.4287 
29 1 5.62791 9.64333 6.52074 -3.24507 
30 1 7.11219 11.8384 5.67749 -3.27866 
31 1 7.6882 9.42816 4.76695 -3.16409 
3 1 10.0601 8.57779 5.72948 -3.44269 
33 1 8.0419 9.63998 7.45494 -3.77827 
5 1 9.68032 11.2229 5.65251 -3.52173 
4 1 12.219 10.3491 6.22687 -3.30228 
7 1 13.4429 11.976 7.9622 -3.21635 
32 1 5.97611 12.0136 7.93684 -3.31017 
6 1 11.2386 12.9072 7.01978 -3.47459 
34 1 8.72081 13.8773 6.29884 -3.17216 
35 1 5.84997 7.59644 8.23622 -3.2483 
36 1 6.25401 7.43386 10.9151 -3.34413 
37 1 7.50921 5.71241 8.89682 -3.27186 
8 1 11.4272 7.32906 9.94727 -3.95531 
38 1 8.36905 6.00019 11.5884 -3.38779 
39 1 9.97016 4.99634 9.75499 -3.3817 
1 1 12.0735 5.28648 8.02354 -3.15277 
9 1 12.505 4.68824 10.4581 -3.12363 
10 1 13.5926 6.46477 11.8652 -3.14941 
11 1 13.9379 6.81882 9.25729 -3.31443 
41 1 6.15215 9.85308 9.49521 -3.55678 
12 1 10.6704 9.79478 8.27666 -3.95551 
13 1 11.7521 9.8504 10.863 -3.76888 
40 1 8.54668 8.03042 9.61481 -3.8485 
42 1 8.76477 10.6919 10.4897 -3.89145 
14 1 13.4809 9.46179 8.70873 -3.5294 
15 1 14.2283 8.90212 11.2365 -3.34801 
16 1 13.8662 11.6142 10.5166 -3.42671 
44 1 6.54247 12.3294 10.5198 -3.38891 
45 1 7.30886 14.2618 8.61386 -3.18398 
18 1 11.1306 12.2906 9.79541 -3.88291 
17 1 11.0296 15.1356 10.9757 -3.13701 
19 1 10.0348 14.6991 8.56481 -3.4235 
43 1 8.76539 12.1314 8.22372 -3.77726 
46 1 8.87401 13.5931 10.832 -3.63838 
21 1 12.7968 14.172 9.28747 -3.21476 
47 1 7.36813 7.53795 13.4503 -3.18693 
22 1 10.9193 5.97403 12.3146 -3.46699 
48 1 9.87264 7.46489 14.4375 -3.19758 
49 1 6.81306 9.80929 12.1296 -3.49116 
23 1 11.0775 9.98239 14.85 -3.38263 
50 1 8.45651 9.85907 14.3032 -3.45317 
51 1 9.55209 8.55194 12.1042 -3.84928 
52 1 10.3915 11.403 12.6362 -3.85854 
24 1 12.169 8.26603 13.127 -3.53358 
25 1 13.1791 10.7883 13.0702 -3.45292 
53 1 7.81705 12.2213 12.9568 -3.43912 
26 1 11.9371 12.5769 14.6215 -3.16121 
54 1 9.4302 12.1906 15.1343 -3.15448 
55 1 10.063 14.0164 13.2623 -3.32419 
20 1 12.4725 13.2747 12.0614 -3.48068 
