ITEM: TIMESTEP
22
ITEM: NUMBER OF ATOMS
5
ITEM: BOX BOUNDS pp pp pp
0 10
0 10
0 10
ITEM: ATOMS id type x y z c_pea 
5 1 5.68244 3.67206 3.77387 -2.57482 
3 1 3.80799 5.17794 4.26717 -2.7612 
4 1 6.28467 5.99857 4.27349 -2.76121 
1 1 5.45028 4.35499 6.12002 -2.7612 
2 1 4.6795 6.68219 5.99997 -2.57483 
