/var/folders/35/zn93tsdx7p13vbrdj0l0gn9r0000gn/T/LAMMPS-sdkuw0_0/data.lammps (written by ASE) 

5 	 atoms 
1  atom types
0.0 10.000000000  xlo xhi
0.0 10.000000000  ylo yhi
0.0 10.000000000  zlo zhi


Atoms 

     1   1 3.962800052 5.036859864 4.364743256
     2   1 5.633771383 3.764816986 5.635256744
     3   1 6.037199948 6.235183014 4.899196220
     4   1 5.633771383 3.764816986 5.635256744
     5   1 3.962800052 5.036859864 4.364743256
