ITEM: TIMESTEP
108
ITEM: NUMBER OF ATOMS
55
ITEM: BOX BOUNDS ss ss ss
4.56788 15.0427
4.96301 14.6071
5.43005 15.0209
ITEM: ATOMS id type x y z c_pea 
23 1 9.76652 8.52423 8.213 -3.79549 
36 1 4.56895 8.6858 8.81831 -3.17471 
39 1 8.05627 7.94608 6.29717 -3.35378 
41 1 7.05227 4.96407 9.90504 -3.15671 
45 1 9.00789 5.90743 8.3641 -3.54163 
51 1 5.96841 9.7456 6.78145 -3.24855 
54 1 6.48342 7.01062 8.17663 -3.45176 
52 1 7.2427 9.55467 9.00428 -3.83614 
28 1 10.3132 9.15769 5.43104 -3.18302 
6 1 14.9636 8.87145 9.85177 -3.42699 
14 1 14.1656 6.16093 9.24238 -3.3431 
16 1 12.503 8.06843 8.38638 -3.78842 
17 1 12.8755 8.73423 5.86715 -3.30786 
18 1 15.0416 7.9983 7.34932 -3.16266 
19 1 13.372 6.13938 6.6278 -3.16249 
21 1 11.6199 5.34237 8.54061 -3.4181 
37 1 10.7887 6.78244 6.36965 -3.43051 
22 1 5.42029 13.8623 9.393 -3.15681 
26 1 4.95738 11.2936 8.98972 -3.41764 
27 1 7.50799 12.125 10.0056 -3.8073 
29 1 8.59312 10.6431 6.80187 -3.55349 
40 1 6.7723 12.4499 7.41539 -3.37923 
46 1 7.84277 14.6061 8.72427 -3.16245 
34 1 9.63132 12.8568 7.94515 -3.42307 
9 1 13.9801 10.4462 7.85256 -3.38331 
1 1 12.0467 12.5482 9.44716 -3.46519 
30 1 9.88088 10.8075 9.69802 -3.82033 
50 1 11.4046 10.7036 7.37095 -3.64165 
10 1 14.6434 11.5715 10.1397 -3.14901 
13 1 9.53396 5.10633 11.1716 -3.44972 
33 1 8.06659 7.43107 10.551 -3.83081 
35 1 9.00339 7.43129 13.1979 -3.58449 
42 1 5.41991 7.00032 10.7375 -3.37021 
43 1 6.45857 8.09975 13.0203 -3.32645 
44 1 7.15303 5.6007 12.401 -3.16234 
55 1 5.48403 9.76175 11.1731 -3.57318 
20 1 12.3342 5.01281 11.0083 -3.17275 
5 1 10.8404 7.2496 10.431 -3.79807 
11 1 13.3903 7.46053 11.5028 -3.61553 
12 1 10.7947 8.36969 15.0199 -3.1446 
15 1 11.4077 6.33309 13.1136 -3.42431 
24 1 11.0718 9.07729 12.4101 -3.79204 
8 1 13.1661 8.19473 14.0949 -3.16731 
32 1 8.25623 9.90955 11.752 -3.85198 
25 1 6.45418 10.6924 13.5969 -3.17985 
31 1 9.69921 13.6902 10.5348 -3.44849 
38 1 8.04959 12.5819 12.7524 -3.43233 
47 1 9.18438 10.2911 14.1976 -3.41942 
48 1 7.15347 14.5634 11.2578 -3.15951 
49 1 5.47625 12.4198 11.7048 -3.33381 
2 1 12.441 10.0326 10.2666 -3.81609 
4 1 14.1506 9.9662 12.3845 -3.40498 
3 1 13.016 12.2961 12.0091 -3.19219 
7 1 12.1216 10.6952 14.1809 -3.29758 
53 1 10.5205 11.7698 12.2109 -3.58841 
