/var/folders/35/zn93tsdx7p13vbrdj0l0gn9r0000gn/T/LAMMPS-5x3vz0_f/data.lammps (written by ASE) 

5 	 atoms 
1  atom types
0.0 10.000000000  xlo xhi
0.0 10.000000000  ylo yhi
0.0 10.000000000  zlo zhi


Atoms 

     1   1 3.864141000 5.272627000 6.013133000
     2   1 6.216131000 5.914867000 6.297713000
     3   1 4.274719000 3.925705000 3.702287000
     4   1 3.783869000 6.074295000 4.782617000
     5   1 6.214589000 5.357655000 4.161897000
