ITEM: TIMESTEP
28
ITEM: NUMBER OF ATOMS
5
ITEM: BOX BOUNDS pp pp pp
0 10
0 10
0 10
ITEM: ATOMS id type x y z c_pea 
3 1 3.93487 4.15302 3.74908 -2.57481 
5 1 6.18026 4.94945 4.33965 -2.76122 
4 1 4.07887 6.48844 4.49061 -2.76121 
1 1 4.35292 4.48923 6.14429 -2.76121 
2 1 5.80654 6.465 6.23401 -2.57481 
