/var/folders/35/zn93tsdx7p13vbrdj0l0gn9r0000gn/T/LAMMPS-nj_u936v/data.lammps (written by ASE) 

55 	 atoms 
1  atom types
0.0 20.000000000  xlo xhi
0.0 20.000000000  ylo yhi
0.0 20.000000000  zlo zhi


Atoms 

     1   1 7.779365455 6.111940909 5.984377818
     2   1 10.363185455 6.694580909 5.408907818
     3   1 9.308385455 5.100810909 7.839197818
     4   1 8.278905455 4.237980909 10.098557818
     5   1 11.704825455 6.086190909 7.862837818
     6   1 8.220445455 8.415640909 5.010297818
     7   1 6.698625455 5.775820909 8.396807818
     8   1 12.373425455 8.253490909 6.440967818
     9   1 10.759355455 5.415000909 10.335157818
    10   1 10.471295455 9.638700909 5.235787818
    11   1 9.477445455 7.886910909 7.493427818
    12   1 6.781835455 8.310040909 7.341177818
    13   1 13.847725455 7.363430909 8.556117818
    14   1 6.317005455 5.666390909 11.029257818
    15   1 8.558965455 6.995400909 9.954557818
    16   1 13.153625455 6.644250909 11.014357818
    17   1 8.739225455 5.641110909 12.346757818
    18   1 12.635825455 11.225800909 5.867657818
    19   1 11.387425455 8.117640909 9.768057818
    20   1 8.309925455 10.518700909 6.797907818
    21   1 6.043885455 8.121030909 9.852557818
    22   1 13.894425455 9.985900909 7.898237818
    23   1 10.994625455 10.114800909 7.910077818
    24   1 11.156825455 6.639230909 12.738057818
    25   1 8.563965455 9.784600909 9.489377818
    26   1 10.248195455 12.323000909 6.319477818
    27   1 14.019225455 9.200380909 10.456957818
    28   1 8.819800000 13.725419091 6.240902182
    29   1 10.973080000 14.660819091 7.402112182
    30   1 5.890210000 10.380119091 9.134362182
    31   1 8.337510000 11.167019091 10.517102182
    32   1 11.670180000 11.111619091 10.288202182
    33   1 9.680270000 8.936549091 11.261902182
    34   1 14.159380000 9.430019091 10.838502182
    35   1 14.048280000 12.098419091 10.327202182
    36   1 6.704440000 13.175819091 10.388402182
    37   1 7.241100000 12.210519091 7.878682182
    38   1 9.952020000 12.432919091 8.474792182
    39   1 9.526000000 13.602319091 11.068402182
    40   1 10.299680000 15.762019091 9.704602182
    41   1 12.096280000 13.962319091 9.769002182
    42   1 8.305380000 14.596019091 8.707992182
    43   1 12.873680000 12.457019091 7.797952182
    44   1 7.749040000 9.738389091 13.107102182
    45   1 5.840620000 10.974619091 11.678402182
    46   1 9.862840000 8.455799091 13.994302182
    47   1 11.742480000 10.019579091 14.901902182
    48   1 10.379480000 11.210419091 12.687402182
    49   1 9.275600000 11.186519091 14.989702182
    50   1 12.177480000 8.784159091 12.560602182
    51   1 13.267080000 11.198319091 12.808002182
    52   1 7.702250000 12.436019091 12.925702182
    53   1 12.037780000 13.449719091 12.289802182
    54   1 11.799580000 12.512219091 14.796502182
    55   1 9.775990000 13.695319091 13.826002182
