ITEM: TIMESTEP
92
ITEM: NUMBER OF ATOMS
55
ITEM: BOX BOUNDS pp pp pp
0 20
0 20
0 20
ITEM: ATOMS id type x y z c_pea 
1 1 7.81126 6.25253 6.26911 -3.2228 
2 1 10.0047 7.03494 4.91865 -3.17046 
3 1 9.29018 4.70016 7.75925 -3.28266 
5 1 11.5541 5.49725 6.5945 -3.20463 
11 1 9.9939 7.49529 7.46389 -3.75976 
8 1 12.3654 7.99855 6.09833 -3.47386 
6 1 8.07635 8.84788 6.07135 -3.36485 
10 1 10.4588 9.69779 5.1094 -3.40122 
20 1 8.77358 11.3788 6.49981 -3.43573 
23 1 11.1045 10.0792 7.7096 -3.85954 
18 1 12.9717 10.5562 5.69624 -3.1643 
26 1 11.1097 12.4028 6.05649 -3.39112 
28 1 9.1637 14.0857 7.19075 -3.31118 
29 1 11.7338 14.3834 7.68035 -3.15817 
43 1 13.056 12.0617 7.97118 -3.52034 
12 1 6.64023 7.80698 8.21507 -3.46839 
7 1 6.9032 5.15937 8.54131 -3.14537 
14 1 6.43506 5.95581 10.8562 -3.08795 
4 1 8.74989 4.5883 10.5715 -3.23736 
9 1 11.2253 5.29119 9.34435 -3.50436 
15 1 8.79128 7.02001 9.78538 -3.81888 
24 1 10.618 6.29642 11.8358 -3.52564 
13 1 13.3912 6.6903 8.24481 -3.35689 
16 1 13.2281 6.09897 10.874 -3.16166 
21 1 6.75878 8.59537 10.8608 -3.60059 
30 1 5.85007 10.4437 9.20682 -3.29495 
45 1 5.42224 10.728 11.8614 -3.16719 
31 1 7.9736 11.2232 10.9539 -3.80935 
19 1 11.5904 8.02353 9.67351 -3.86415 
25 1 8.54865 9.71385 8.74125 -3.88865 
33 1 9.77971 9.21011 11.4856 -3.94065 
22 1 13.7612 9.44755 8.06614 -3.51776 
32 1 12.1847 10.5618 10.4909 -3.93036 
27 1 14.3177 8.48655 10.3935 -3.39632 
35 1 14.5875 11.382 10.1038 -3.24122 
37 1 7.37094 12.4471 8.46908 -3.46253 
36 1 5.94499 13.018 10.6459 -3.27794 
42 1 7.5146 14.9104 9.12827 -3.01875 
38 1 10.1288 12.321 9.01576 -3.97525 
39 1 8.38311 13.9791 11.3764 -3.5355 
40 1 10.1423 15.0043 9.67537 -3.3699 
48 1 10.418 12.1653 11.869 -3.83085 
41 1 12.4371 13.5035 10.1336 -3.52466 
17 1 8.18638 6.93306 12.5595 -3.39357 
44 1 7.51851 9.53183 13.2529 -3.44393 
46 1 10.0355 8.37624 13.9103 -3.27168 
47 1 11.8479 10.4389 13.5342 -3.50566 
49 1 9.34482 11.14 14.1593 -3.44403 
34 1 14.2962 10.1516 12.4158 -3.16764 
50 1 12.4259 8.16827 12.3797 -3.52274 
52 1 7.04765 12.3399 13.2076 -3.34264 
54 1 11.4948 12.9687 14.3437 -3.15023 
55 1 9.14429 13.8325 13.9012 -3.15638 
53 1 11.1307 14.6599 12.2445 -3.28539 
51 1 13.2385 12.5537 12.3953 -3.39243 
