ITEM: TIMESTEP
2
ITEM: NUMBER OF ATOMS
5
ITEM: BOX BOUNDS pp pp pp
0 10
0 10
0 10
ITEM: ATOMS id type x y z c_pea 
1 1 nan nan nan 0 
4 1 nan nan nan 0 
3 1 6.28599 5.95105 4.63724 -2.00107 
2 1 5.34917 4.09522 6.21375 -2.00106 
5 1 3.71401 5.74311 5.02301 -2.00106 
