/var/folders/35/zn93tsdx7p13vbrdj0l0gn9r0000gn/T/LAMMPS-rr954h3u/data.lammps (written by ASE) 

55 	 atoms 
1  atom types
0.0 20.000000000  xlo xhi
0.0 20.000000000  ylo yhi
0.0 20.000000000  zlo zhi


Atoms 

     1   1 11.472125364 5.400875000 10.077704545
     2   1 8.993375364 6.290195000 10.931504545
     3   1 15.192525364 7.756665000 10.110604545
     4   1 13.645825364 6.093855000 11.329104545
     5   1 6.969415364 8.256005000 10.813904545
     6   1 5.158145364 10.444825000 10.663304545
     7   1 7.631025364 10.908125000 10.136904545
     8   1 11.933425364 10.301925000 11.163404545
     9   1 9.596455364 8.996595000 10.416804545
    10   1 12.462425364 8.109715000 9.699704545
    11   1 14.601425364 10.286025000 10.510404545
    12   1 5.631385364 13.039625000 9.813204545
    13   1 10.587425364 12.200125000 9.886404545
    14   1 8.218075364 13.677025000 10.252904545
    15   1 10.790325364 14.599125000 10.912004545
    16   1 13.357425364 12.771625000 10.863804545
    17   1 11.289625364 7.387065000 12.091404545
    18   1 6.775475364 9.968025000 12.913804545
    19   1 8.860345364 8.205205000 12.914704545
    20   1 8.797445364 9.824425000 14.909704545
    21   1 9.251275364 11.059625000 12.381704545
    22   1 11.300225364 9.714855000 13.715304545
    23   1 13.723225364 8.530155000 12.380304545
    24   1 13.664525364 11.098425000 13.032104545
    25   1 7.617895364 12.083025000 14.514004545
    26   1 6.582975364 12.516525000 12.165304545
    27   1 10.210425364 12.004125000 14.843904545
    28   1 9.026255364 13.708625000 12.865904545
    29   1 11.525825364 12.685525000 12.720204545
    30   1 6.221194636 6.426717909 7.137125455
    31   1 8.102664636 7.425757909 5.664005455
    32   1 10.473334636 6.087957909 5.775995455
    33   1 5.762224636 8.974127909 6.367455455
    34   1 6.644494636 11.466327909 7.136785455
    35   1 11.911334636 10.053727909 7.535685455
    36   1 10.666034636 8.625657909 5.090295455
    37   1 8.398124636 10.030227909 5.683945455
    38   1 10.931634636 11.287527909 5.316195455
    39   1 9.903864636 8.055437909 7.668065455
    40   1 12.671134636 7.506147909 6.727935455
    41   1 14.472534636 9.464927909 7.503895455
    42   1 13.159934636 9.586527909 5.100775455
    43   1 11.266534636 12.937127909 7.547855455
    44   1 8.880724636 12.739727909 6.017905455
    45   1 13.433734636 11.890127909 6.178525455
    46   1 8.673164636 5.615587909 7.692755455
    47   1 11.483034636 5.662437909 8.195475455
    48   1 14.052034636 7.121607909 9.049915455
    49   1 4.807474636 7.802087909 8.712605455
    50   1 5.001614636 10.373627909 8.930605455
    51   1 7.415554636 8.853587909 8.331255455
    52   1 9.347004636 11.015927909 8.030395455
    53   1 5.384594636 12.931427909 9.120865455
    54   1 7.823174636 13.596027909 8.233945455
    55   1 13.832334636 11.909127909 8.723115455
