ITEM: TIMESTEP
158
ITEM: NUMBER OF ATOMS
55
ITEM: BOX BOUNDS ss ss ss
4.22207 16.0477
5.2819 14.817
5.49031 14.8531
ITEM: ATOMS id type x y z c_pea 
28 1 4.22329 8.90936 9.97839 -3.15918 
48 1 5.96798 7.05632 8.91988 -3.36847 
50 1 7.94028 8.2559 7.61225 -3.56006 
45 1 5.94098 9.85012 8.25539 -3.31155 
33 1 10.4969 9.93999 8.07702 -3.93199 
39 1 12.0642 9.02733 6.06346 -3.35215 
42 1 11.1606 5.33257 8.78701 -3.24211 
43 1 9.38605 8.99872 5.50235 -3.14122 
44 1 10.3822 7.20743 7.2022 -3.5196 
49 1 8.42405 5.63396 8.5832 -3.29344 
21 1 9.31726 7.66999 9.95655 -3.85766 
17 1 11.9496 8.1062 9.59717 -3.82008 
30 1 14.7138 7.31562 9.45061 -3.16999 
38 1 13.8348 9.43652 8.04099 -3.52669 
46 1 13.0422 6.81946 7.51223 -3.25678 
32 1 8.07332 10.9491 6.88755 -3.42954 
37 1 7.62554 12.9266 9.18424 -3.54988 
34 1 8.28998 10.3732 9.5757 -3.78587 
35 1 9.80473 14.8161 9.11551 -3.14319 
41 1 9.94364 12.6971 7.60402 -3.48587 
51 1 10.515 11.2204 5.49124 -3.13068 
36 1 12.4943 11.5959 7.21266 -3.43569 
40 1 12.2128 13.5693 9.0072 -3.45015 
31 1 14.5639 12.0843 8.87832 -3.33024 
8 1 7.52698 9.60674 13.5178 -3.69919 
22 1 7.18271 5.76015 10.96 -3.41881 
24 1 4.697 6.77368 11.3058 -3.1412 
25 1 4.80837 9.29995 12.5813 -3.31302 
26 1 6.18115 7.17204 13.3408 -3.14092 
27 1 6.85664 8.56729 10.9867 -3.84864 
7 1 11.349 7.2763 12.2815 -3.55366 
9 1 8.69498 7.12904 12.6694 -3.49667 
12 1 9.94697 5.28284 11.0314 -3.30341 
18 1 9.99602 8.49042 14.4056 -3.14599 
10 1 10.0602 9.72428 11.7686 -3.97347 
47 1 12.8808 5.82638 10.6332 -3.21664 
19 1 12.2183 9.6269 13.4764 -3.38542 
52 1 15.3883 9.87234 10.1833 -3.32374 
54 1 13.7509 8.38353 11.6685 -3.46399 
13 1 8.03945 11.8808 12.0422 -3.91904 
14 1 5.57808 11.7877 13.234 -3.31518 
15 1 6.97575 14.1305 13.5207 -3.14274 
20 1 5.94655 13.6466 11.2101 -3.16232 
23 1 5.70034 11.1138 10.6007 -3.56796 
11 1 7.63168 12.0474 14.8522 -3.14244 
2 1 9.62139 13.6215 13.4881 -3.38085 
3 1 11.2171 14.5678 11.4074 -3.32753 
5 1 10.1786 12.3023 10.3353 -3.86604 
16 1 9.92178 11.0486 14.2318 -3.40647 
29 1 8.4494 14.5799 11.2874 -3.41763 
4 1 11.758 12.1454 12.5973 -3.58745 
55 1 16.0465 12.2525 10.9773 -2.82092 
6 1 12.579 10.7784 10.2447 -3.98275 
1 1 14.3051 10.9924 12.4065 -3.33906 
53 1 13.6964 13.3261 11.1644 -3.3338 
