ITEM: TIMESTEP
66
ITEM: NUMBER OF ATOMS
5
ITEM: BOX BOUNDS pp pp pp
0 10
0 10
0 10
ITEM: ATOMS id type x y z c_pea 
2 1 4.20125 4.24607 3.62004 -2.57482 
1 1 3.7104 6.39466 4.70037 -2.76121 
4 1 6.14112 5.67802 4.07965 -2.76121 
3 1 4.85778 4.43033 5.97795 -2.76121 
5 1 5.60494 6.75595 6.21863 -2.57482 
