ITEM: TIMESTEP
80
ITEM: NUMBER OF ATOMS
55
ITEM: BOX BOUNDS ss ss ss
4.26144 15.5438
5.62324 14.1443
4.06989 15.8978
ITEM: ATOMS id type x y z c_pea 
30 1 5.86982 8.34496 6.28118 -3.436 
54 1 7.46694 7.56874 4.32221 -3.14768 
31 1 7.5405 6.28883 6.83488 -3.33558 
33 1 9.67498 6.47498 5.02042 -3.15842 
45 1 9.75789 9.05489 4.07107 -3.31525 
50 1 8.77856 8.60321 6.50939 -3.78751 
40 1 10.4133 6.29425 7.53766 -3.40224 
41 1 11.6229 8.07884 6.00979 -3.42577 
39 1 7.32704 10.251 4.79147 -3.46532 
32 1 6.52517 13.4003 7.97554 -3.19586 
36 1 5.71712 11.1742 6.69139 -3.45448 
53 1 7.51554 13.0846 5.55436 -3.1912 
37 1 8.48358 11.3461 7.21007 -3.87664 
42 1 9.36332 11.7698 4.27758 -3.14353 
44 1 10.2636 13.3386 6.28681 -3.4123 
47 1 10.9277 10.648 6.04407 -3.64261 
52 1 13.0533 10.0151 7.60934 -3.54315 
55 1 12.733 12.5813 6.86718 -3.16753 
20 1 7.1393 8.44389 11.1697 -3.78282 
21 1 4.67471 9.31418 10.6257 -3.26751 
24 1 4.87617 6.95709 11.6253 -2.99717 
25 1 6.86021 5.62413 10.8733 -3.15425 
29 1 5.62205 7.11753 8.95653 -3.52456 
34 1 8.49441 7.05099 9.24387 -3.71346 
35 1 6.98024 9.37114 8.54034 -3.81383 
38 1 4.26258 9.40404 8.09571 -3.15642 
1 1 9.84335 9.14051 11.4264 -3.92402 
7 1 11.1561 6.75576 10.1693 -3.54586 
48 1 10.4637 8.95029 8.53662 -3.90406 
4 1 13.7733 7.24823 11.009 -3.28624 
13 1 12.4282 9.44874 10.3944 -3.7996 
15 1 14.8881 9.36185 9.47072 -3.27358 
28 1 15.5427 8.82296 11.9024 -2.86356 
51 1 12.9618 7.4729 8.36498 -3.41828 
8 1 6.46203 11.0605 11.8947 -3.36985 
10 1 7.35398 13.3421 10.6777 -3.28392 
23 1 5.55788 11.5384 9.44661 -3.45901 
9 1 8.49732 11.1048 10.0113 -3.81798 
46 1 8.97602 13.8417 8.50581 -3.43377 
6 1 10.1228 13.4405 10.8191 -3.32765 
43 1 10.8907 11.6365 8.78962 -3.84086 
49 1 11.6745 14.1434 8.66565 -3.15415 
11 1 13.4287 12.075 9.42859 -3.40513 
26 1 14.5096 11.1308 11.528 -3.13869 
19 1 11.7034 11.5586 11.7775 -3.55757 
14 1 9.12893 6.48792 11.961 -3.48616 
5 1 7.31992 7.98021 15.7109 -2.78596 
22 1 6.90389 6.85217 13.4028 -3.31366 
12 1 9.52516 7.47678 14.4137 -3.35809 
27 1 9.14782 9.63693 15.8966 -2.80993 
17 1 7.89717 9.48305 13.5895 -3.56573 
18 1 11.6347 7.45594 12.7199 -3.42041 
3 1 13.2752 9.43442 13.0286 -3.30549 
2 1 9.03634 11.748 12.5949 -3.45608 
16 1 10.7392 9.92547 13.8516 -3.46049 
