/var/folders/35/zn93tsdx7p13vbrdj0l0gn9r0000gn/T/LAMMPS-rqvyszeg/data.lammps (written by ASE) 

5 	 atoms 
1  atom types
0.0 10.000000000  xlo xhi
0.0 10.000000000  ylo yhi
0.0 10.000000000  zlo zhi


Atoms 

     1   1 3.768163621 5.965837253 4.943443541
     2   1 5.119512531 4.034162747 4.259842792
     3   1 3.768163621 5.965837253 4.943443541
     4   1 5.119512531 4.034162747 4.259842792
     5   1 6.231836379 5.645408865 5.740157208
