ITEM: TIMESTEP
118
ITEM: NUMBER OF ATOMS
55
ITEM: BOX BOUNDS ss ss ss
4.74811 15.1516
4.83985 16.3091
6.43559 14.4564
ITEM: ATOMS id type x y z c_pea 
1 1 9.87 5.99437 10.1321 -3.54534 
12 1 7.20245 7.15326 9.89028 -3.38006 
13 1 8.09385 5.32703 8.42592 -2.76558 
28 1 9.30911 7.79643 8.16625 -3.42585 
3 1 12.2044 7.25703 9.39283 -3.68965 
6 1 14.4233 6.99132 7.96448 -2.7993 
18 1 14.1861 5.54004 9.96745 -3.01102 
9 1 15.1505 8.06815 10.2758 -3.38974 
26 1 7.31704 9.64267 8.91949 -3.55266 
33 1 9.0359 10.2676 6.91389 -3.26451 
36 1 6.5151 11.9612 7.81003 -3.41672 
44 1 9.06115 11.8132 9.06161 -3.81501 
49 1 5.64957 11.3469 10.3276 -3.49279 
29 1 13.858 9.43647 8.45396 -3.29614 
38 1 11.1658 9.82737 8.58803 -3.70637 
40 1 11.0393 12.3441 7.41235 -3.34686 
55 1 13.1642 11.8911 9.00332 -3.39268 
34 1 4.76934 13.746 9.12451 -3.16863 
37 1 8.56846 12.8256 6.43643 -3.17541 
47 1 7.60443 16.3078 9.31776 -3.22064 
51 1 6.74428 14.5744 7.51974 -3.21262 
52 1 9.36104 14.5085 8.31984 -3.5562 
53 1 7.20108 13.6462 10.0825 -3.78549 
35 1 10.1743 16.2656 10.2071 -3.20109 
42 1 11.7171 14.091 9.54715 -3.50169 
4 1 8.22545 7.17343 12.422 -3.5654 
14 1 7.76537 4.84117 11.0507 -2.98743 
17 1 9.78797 5.10774 12.8642 -3.2796 
16 1 9.99789 7.64579 14.4555 -3.28413 
7 1 13.8174 6.80984 12.2596 -3.49086 
8 1 12.0581 4.96271 11.4172 -3.29418 
19 1 11.0767 7.45689 12.0613 -3.69798 
20 1 12.0091 5.88641 14.0545 -3.16175 
10 1 12.6559 8.55158 14.0426 -3.42774 
21 1 6.094 11.3989 13.1546 -3.30118 
23 1 8.04881 9.53622 13.7869 -3.38187 
24 1 6.52254 9.14637 11.5995 -3.43835 
25 1 8.78729 12.1904 14.0704 -3.39381 
31 1 9.39486 9.03636 10.6246 -3.94788 
48 1 8.23638 11.3257 11.6142 -3.83761 
2 1 10.5669 10.1141 13.1436 -3.76776 
5 1 13.2666 11.069 13.1114 -3.42055 
11 1 12.7519 9.33943 11.064 -3.85721 
15 1 15.0128 9.13067 12.7622 -3.16482 
22 1 11.1956 11.5739 10.8676 -3.89079 
30 1 14.8732 10.8935 10.7705 -3.31717 
32 1 9.53497 14.8368 13.7857 -3.18102 
41 1 7.08495 13.9069 12.8763 -3.5411 
43 1 9.58781 13.7896 11.3216 -3.81547 
45 1 8.17122 16.1333 11.8872 -3.30663 
50 1 4.74915 13.3129 11.764 -3.15064 
54 1 5.65332 15.6146 10.9586 -3.17694 
27 1 11.3094 12.8698 13.3747 -3.47458 
39 1 11.6832 15.2219 12.1171 -3.22095 
46 1 13.3633 13.1529 11.4663 -3.35804 
