/var/folders/35/zn93tsdx7p13vbrdj0l0gn9r0000gn/T/LAMMPS-qmxapvp5/data.lammps (written by ASE) 

55 	 atoms 
1  atom types
0.0 20.000000000  xlo xhi
0.0 20.000000000  ylo yhi
0.0 20.000000000  zlo zhi


Atoms 

     1   1 15.130133909 9.958233909 9.277605909
     2   1 14.034233909 11.848223909 7.902925909
     3   1 13.370933909 9.237783909 7.258565909
     4   1 14.292033909 7.603413909 9.233885909
     5   1 12.527633909 13.974023909 7.027455909
     6   1 11.865333909 11.356723909 6.380865909
     7   1 13.727933909 14.078623909 9.414075909
     8   1 10.430333909 13.301723909 5.453105909
     9   1 13.723433909 11.725023909 10.722355909
    10   1 11.874433909 7.117393909 8.293745909
    11   1 9.447733909 10.767423909 5.167885909
    12   1 14.026033909 9.090373909 11.608155909
    13   1 12.228333909 9.634463909 9.599875909
    14   1 10.430733909 9.261433909 7.283075909
    15   1 11.558433909 12.379523909 9.003785909
    16   1 10.120233909 14.578123909 7.714075909
    17   1 12.382233909 7.053163909 10.971955909
    18   1 8.236053909 8.461763909 5.501355909
    19   1 9.440133909 6.641413909 7.394155909
    20   1 11.340733909 14.948023909 10.032755909
    21   1 12.747133909 13.878023909 11.984355909
    22   1 9.219953909 12.025923909 7.456785909
    23   1 12.956833909 11.008223909 13.196255909
    24   1 10.396233909 5.345043909 9.851555909
    25   1 12.570033909 8.246353909 13.705855909
    26   1 5.875556091 7.051506091 8.006374091
    27   1 7.889096091 5.051976091 8.216494091
    28   1 7.344486091 9.454666091 7.397324091
    29   1 7.422556091 14.364366091 7.883454091
    30   1 4.869866091 7.360796091 10.461614091
    31   1 6.291596091 5.228616091 10.102214091
    32   1 6.822956091 6.799316091 12.145314091
    33   1 8.981536091 5.428506091 10.973914091
    34   1 6.062846091 9.549066091 9.804894091
    35   1 7.914726091 7.514886091 9.520254091
    36   1 7.945706091 9.295796091 11.937614091
    37   1 10.262146091 7.810376091 10.882514091
    38   1 9.062006091 10.191766091 9.463114091
    39   1 6.900726091 11.952966091 8.990904091
    40   1 6.030406091 11.757266091 11.526114091
    41   1 7.341506091 14.205466091 10.493914091
    42   1 8.750386091 11.956566091 11.566914091
    43   1 9.680806091 14.473366091 11.721914091
    44   1 9.217346091 7.174076091 13.367314091
    45   1 11.433746091 6.040906091 12.422914091
    46   1 6.897106091 8.343166091 14.338714091
    47   1 5.300156091 9.223896091 12.417814091
    48   1 6.990476091 11.018266091 13.881214091
    49   1 10.627846091 10.081366091 12.398214091
    50   1 9.208506091 9.590366091 14.683214091
    51   1 11.623246091 8.275756091 14.047314091
    52   1 11.552046091 10.909266091 14.832114091
    53   1 7.334496091 13.631966091 13.084114091
    54   1 9.371806091 12.302766091 14.183214091
    55   1 11.587346091 12.921266091 12.865514091
