/tmp/LAMMPS-4426g3is/data.lammps (written by ASE) 

55 	 atoms 
1  atom types
5.153974999999999 14.846025000000001  xlo xhi
4.414769999999998 15.585230000000003  ylo yhi
4.874364999999999 15.125635  zlo zhi


Atoms 

     1   1 10.099825000 13.360330000 10.608135000
     2   1 6.665815000 13.596630000 13.264735000
     3   1 10.540925000 15.569130000 12.203135000
     4   1 9.297245000 13.153930000 13.202335000
     5   1 8.290345000 5.851870000 10.989935000
     6   1 5.153975000 11.815830000 12.120935000
     7   1 7.627385000 8.207640000 12.620435000
     8   1 7.347545000 10.947230000 13.456035000
     9   1 10.198925000 15.585230000 9.442855000
    10   1 6.432065000 7.341610000 9.797235000
    11   1 6.609015000 9.900180000 10.777535000
    12   1 9.463285000 10.426530000 11.972335000
    13   1 5.645275000 14.212330000 10.877935000
    14   1 7.624375000 12.363730000 10.947935000
    15   1 8.083745000 15.165930000 11.565635000
    16   1 6.226485000 7.356820000 7.176095000
    17   1 7.855815000 9.331300000 8.097995000
    18   1 9.234005000 10.876330000 6.324245000
    19   1 9.789425000 13.337130000 7.719485000
    20   1 8.967255000 8.328030000 10.277935000
    21   1 7.632145000 5.717120000 5.799575000
    22   1 10.019625000 10.977230000 9.088555000
    23   1 7.083415000 4.992280000 8.431505000
    24   1 8.979265000 6.674700000 8.045135000
    25   1 5.298035000 9.580290000 8.481795000
    26   1 10.244725000 6.514660000 5.461885000
    27   1 7.723365000 14.427330000 9.073755000
    28   1 8.427135000 8.361140000 5.688795000
    29   1 11.631125000 7.875320000 14.438135000
    30   1 12.873925000 7.773810000 11.846335000
    31   1 9.482695000 11.692030000 14.390835000
    32   1 9.078505000 9.036030000 15.005835000
    33   1 14.511625000 9.620730000 10.640035000
    34   1 10.987525000 6.085490000 12.568735000
    35   1 9.266055000 6.425860000 14.733835000
    36   1 10.392825000 9.492130000 12.736535000
    37   1 11.534425000 10.391030000 15.125635000
    38   1 13.816325000 12.092830000 11.406535000
    39   1 11.707325000 12.134830000 12.932035000
    40   1 12.118725000 5.519700000 10.235635000
    41   1 9.067795000 4.414770000 12.830335000
    42   1 9.463755000 5.312720000 10.168035000
    43   1 11.679425000 10.071030000 4.874365000
    44   1 13.598725000 11.523930000 8.823245000
    45   1 14.846025000 9.297230000 7.998385000
    46   1 13.731425000 10.724230000 6.226915000
    47   1 11.667125000 12.243030000 7.076175000
    48   1 11.534825000 12.974730000 10.045235000
    49   1 11.013525000 6.510800000 7.917525000
    50   1 13.130425000 8.016930000 6.333585000
    51   1 13.247425000 7.627440000 9.144675000
    52   1 11.711425000 9.516230000 7.902405000
    53   1 11.878725000 10.304330000 10.635235000
    54   1 10.574325000 7.824330000 10.244335000
    55   1 13.275725000 10.001030000 13.149335000
