/var/folders/35/zn93tsdx7p13vbrdj0l0gn9r0000gn/T/LAMMPS-xcmoo4r6/data.lammps (written by ASE) 

55 	 atoms 
1  atom types
0.0 20.000000000  xlo xhi
0.0 20.000000000  ylo yhi
0.0 20.000000000  zlo zhi


Atoms 

     1   1 6.973027636 5.732330000 10.629891818
     2   1 9.504267636 4.530380000 10.435291818
     3   1 12.160367636 7.749950000 10.457791818
     4   1 13.753367636 5.980810000 11.882691818
     5   1 7.324557636 8.501050000 11.309291818
     6   1 8.290827636 11.349920000 10.651191818
     7   1 10.051247636 8.814000000 11.909191818
     8   1 14.676967636 8.597250000 11.617291818
     9   1 14.811667636 11.291420000 11.319391818
    10   1 12.521067636 10.331490000 11.836191818
    11   1 6.254957636 12.893620000 10.740991818
    12   1 11.093067636 15.469620000 11.298491818
    13   1 8.661617636 14.277620000 11.532991818
    14   1 12.766367636 13.242320000 11.780891818
    15   1 11.040767636 5.933410000 12.222691818
    16   1 8.498627636 6.410990000 12.550391818
    17   1 10.018317636 7.593450000 14.279991818
    18   1 12.611867636 7.909410000 13.338291818
    19   1 6.160917636 10.716220000 12.274791818
    20   1 9.723817636 12.050120000 15.011091818
    21   1 8.411067636 9.931850000 13.665091818
    22   1 10.271267636 11.726120000 12.419591818
    23   1 11.221067636 9.921520000 14.433391818
    24   1 14.123267636 10.208830000 13.815291818
    25   1 12.412967636 12.248020000 14.189391818
    26   1 7.751767636 12.573420000 13.259991818
    27   1 10.533267636 14.112620000 13.490291818
    28   1 6.686102364 6.457050727 7.384138182
    29   1 9.093312364 5.505180727 7.297888182
    30   1 10.856032364 7.396920727 6.366398182
    31   1 13.434802364 7.131420727 7.167458182
    32   1 8.308522364 7.981340727 5.920278182
    33   1 6.595802364 9.155950727 7.636288182
    34   1 7.954522364 10.931660727 6.032238182
    35   1 9.660592364 9.717060727 7.540118182
    36   1 10.209602364 9.743760727 4.988908182
    37   1 12.528702364 9.603270727 6.478268182
    38   1 13.383002364 11.493260727 8.305798182
    39   1 6.231972364 11.980960727 7.946208182
    40   1 8.928202364 12.750660727 7.837138182
    41   1 11.093202364 11.834660727 6.540158182
    42   1 5.188332364 7.537280727 9.205838182
    43   1 7.051542364 5.720630727 9.870478182
    44   1 8.876272364 7.520830727 8.975178182
    45   1 9.545832364 4.987300727 9.934018182
    46   1 11.525402364 5.803120727 8.489038182
    47   1 13.686102364 6.878870727 9.872498182
    48   1 7.909692364 10.628260727 9.447508182
    49   1 5.289982364 10.136660727 9.873398182
    50   1 11.719602364 8.531040727 8.850888182
    51   1 10.944832364 11.264260727 9.370118182
    52   1 14.547902364 9.148190727 8.473598182
    53   1 7.080742364 14.306360727 9.147928182
    54   1 9.485542364 15.166060727 9.033658182
    55   1 11.597202364 13.679060727 8.520838182
