ITEM: TIMESTEP
118
ITEM: NUMBER OF ATOMS
55
ITEM: BOX BOUNDS pp pp pp
0 20
0 20
0 20
ITEM: ATOMS id type x y z c_pea 
28 1 6.96746 6.48398 7.40875 -3.19518 
29 1 9.52783 5.51209 7.25803 -3.21167 
30 1 11.0157 7.86247 6.65454 -3.55757 
31 1 13.7118 7.51319 6.73459 -3.16231 
33 1 5.72649 8.94398 7.5111 -3.23645 
34 1 7.21352 10.6687 6.10529 -3.18127 
32 1 8.38742 8.24835 6.28426 -3.42651 
36 1 9.93975 10.4322 5.94264 -3.38123 
37 1 12.6671 10.0211 6.53778 -3.43539 
41 1 11.3878 12.5079 7.11146 -3.41557 
40 1 8.76337 12.3061 7.63606 -3.65507 
1 1 6.30701 5.5423 11.5899 -2.93849 
42 1 6.54916 7.52211 9.79917 -3.60654 
43 1 7.76355 4.95582 9.4023 -3.41943 
2 1 8.55723 4.06729 11.8285 -2.97069 
44 1 9.32511 7.40728 8.9092 -3.86731 
45 1 10.3801 4.8752 10.0433 -3.52842 
3 1 11.1737 7.51651 10.96 -3.77612 
16 1 8.61633 6.61861 11.5205 -3.5445 
46 1 12.0715 6.05595 8.38547 -3.53438 
4 1 12.9657 5.60287 10.9486 -3.27951 
47 1 14.6687 6.81947 9.133 -3.19349 
8 1 14.0736 7.97589 11.4949 -3.40607 
39 1 6.05083 11.8227 8.28097 -3.4094 
48 1 7.92142 9.74385 8.56385 -3.71675 
49 1 5.69406 10.0468 10.1959 -3.43334 
6 1 7.97234 11.8019 10.4102 -3.79427 
35 1 10.584 10.0045 8.48254 -3.84623 
7 1 9.02837 9.41622 11.2125 -3.94281 
10 1 11.8865 10.1301 11.3016 -3.90321 
50 1 12.7809 8.63785 9.06108 -3.70854 
9 1 14.7466 10.2687 10.5749 -3.31136 
38 1 13.27 11.444 8.72929 -3.60461 
52 1 15.0487 9.37091 8.0272 -3.15457 
11 1 5.85238 13.0863 10.9127 -3.17234 
53 1 7.29874 14.1171 8.94355 -3.18396 
51 1 10.7296 12.305 9.81043 -3.74777 
12 1 11.4035 14.4086 11.4239 -3.40852 
13 1 8.69899 14.3465 11.1723 -3.50528 
54 1 9.98806 14.5678 8.75489 -3.28649 
55 1 12.6058 14.0589 9.0391 -3.15706 
14 1 13.2918 12.4899 11.2801 -3.48947 
15 1 10.8326 5.47673 12.7016 -3.30178 
17 1 9.68017 7.94734 13.5373 -3.42648 
18 1 12.3365 7.78157 13.3845 -3.33802 
5 1 6.77079 8.39523 12.3795 -3.39768 
19 1 6.16052 10.9943 12.5332 -3.22626 
21 1 8.33024 10.2661 13.8271 -3.47189 
22 1 9.97127 11.955 12.3511 -3.74714 
23 1 11.1624 10.1283 14.0775 -3.49783 
24 1 13.7098 10.3183 13.122 -3.28058 
26 1 7.63174 13.0104 13.2493 -3.39895 
20 1 9.72098 12.2432 15.0186 -3.14409 
27 1 9.9654 14.3923 13.6262 -3.15511 
25 1 12.1508 12.6529 13.6739 -3.35279 
