ITEM: TIMESTEP
26
ITEM: NUMBER OF ATOMS
5
ITEM: BOX BOUNDS pp pp pp
0 10
0 10
0 10
ITEM: ATOMS id type x y z c_pea 
1 1 2.79326 2.79326 2.79326 -2.39917 
2 1 3.85903 3.85903 3.85903 -2.3793 
3 1 5.29991 5.29991 5.29991 -2.16388 
4 1 6.74102 6.74102 6.74102 -2.3795 
5 1 7.80677 7.80677 7.80677 -2.39918 
