ITEM: TIMESTEP
220
ITEM: NUMBER OF ATOMS
55
ITEM: BOX BOUNDS ss ss ss
3.94207 15.2916
4.98528 14.6741
4.69248 14.8165
ITEM: ATOMS id type x y z c_pea 
2 1 7.15228 6.50125 6.8447 -3.16665 
6 1 6.54371 9.17779 6.81064 -3.45762 
8 1 7.45296 5.55493 9.34999 -3.29874 
17 1 5.38238 7.4543 8.54327 -3.41421 
5 1 9.07445 8.29092 6.19424 -3.56137 
19 1 8.20032 8.0328 8.92037 -3.82213 
31 1 9.65692 5.98186 7.62019 -3.40847 
30 1 11.1498 8.9948 4.6935 -3.16503 
33 1 11.0772 9.70775 7.36364 -3.83797 
29 1 10.8028 7.79024 9.49702 -3.83992 
32 1 11.8004 7.19356 6.685 -3.42548 
44 1 13.56 8.49149 8.34858 -3.6095 
48 1 12.5084 5.96091 9.06856 -3.22453 
54 1 13.5288 9.19565 5.82697 -3.27103 
24 1 4.26969 9.94319 8.0233 -3.15259 
7 1 6.04382 11.7731 7.56587 -3.29839 
14 1 7.5002 12.8126 9.46818 -3.5754 
11 1 9.61341 11.0932 5.48777 -3.36184 
12 1 8.55526 10.6513 7.91719 -3.75875 
15 1 8.44947 13.1413 6.96813 -3.27893 
22 1 9.7155 14.6731 8.76829 -3.20734 
51 1 10.5718 12.3211 9.1351 -3.85102 
55 1 11.0745 13.2252 6.5811 -3.47575 
37 1 15.2905 10.6654 7.11996 -3.14959 
40 1 12.3076 11.3725 5.15143 -3.32793 
41 1 12.9763 11.4627 7.91619 -3.66456 
45 1 12.7211 14.1966 8.42864 -3.41165 
49 1 14.0214 13.1165 6.23031 -3.12601 
53 1 15.2013 12.8564 8.58127 -3.14802 
18 1 6.16479 7.41133 11.0436 -3.43173 
21 1 3.94311 8.91756 10.3213 -3.13433 
9 1 8.86923 6.75965 11.4041 -3.59388 
3 1 7.80805 9.009 12.4861 -3.67979 
13 1 9.16148 9.20732 14.8155 -3.15737 
27 1 10.1262 4.98626 9.91341 -3.18057 
28 1 10.0988 7.03646 13.8531 -3.13408 
50 1 10.6512 8.98104 12.1698 -3.83231 
34 1 13.4176 7.94963 10.9777 -3.50086 
35 1 12.6305 7.94817 13.6138 -3.19275 
52 1 11.5839 6.21599 11.757 -3.42599 
4 1 6.49925 9.90333 9.77926 -3.82978 
20 1 5.20448 9.83728 12.3242 -3.2811 
1 1 6.81878 10.5537 14.343 -2.98099 
16 1 6.85022 11.8569 11.9439 -3.53849 
26 1 4.73127 11.6744 10.1038 -3.22685 
23 1 9.12057 11.44 13.4278 -3.50421 
10 1 9.1488 13.4359 11.3984 -3.41592 
25 1 9.08256 10.6457 10.6745 -3.89976 
36 1 11.491 14.4146 10.746 -3.17562 
38 1 11.3528 11.9908 12.1228 -3.61899 
47 1 14.8035 10.3625 9.85252 -3.42083 
43 1 12.0218 10.1665 10.1179 -3.79656 
39 1 13.4621 12.5829 10.5686 -3.50971 
42 1 13.4722 10.2598 12.3998 -3.40393 
46 1 11.5234 10.2672 14.318 -3.22011 
