/tmp/LAMMPS-f7bc5vch/data.lammps (written by ASE) 

55 	 atoms 
1  atom types
5.297040000000001 14.70296  xlo xhi
4.926224999999999 15.073775000000001  ylo yhi
4.559044999999999 15.440955  zlo zhi


Atoms 

     1   1 7.903680000 7.894005000 9.379625000
     2   1 9.396860000 7.340145000 12.652655000
     3   1 5.777830000 9.649775000 10.461345000
     4   1 6.640170000 7.039185000 11.644955000
     5   1 5.776290000 9.201175000 7.751015000
     6   1 6.918800000 11.535875000 13.124455000
     7   1 10.953360000 4.985925000 12.474055000
     8   1 7.322270000 12.315875000 10.594255000
     9   1 11.724960000 6.882475000 14.119355000
    10   1 6.919310000 6.755905000 7.145585000
    11   1 8.172090000 4.926225000 12.268255000
    12   1 10.033460000 11.504775000 11.537255000
    13   1 9.787460000 5.947125000 10.307655000
    14   1 5.842380000 9.046255000 13.151655000
    15   1 12.192460000 7.267885000 11.549855000
    16   1 5.518030000 11.669975000 8.706205000
    17   1 8.094680000 9.455175000 14.450655000
    18   1 10.866060000 9.475175000 13.400855000
    19   1 9.464160000 11.718075000 14.189855000
    20   1 12.027460000 12.180075000 13.129755000
    21   1 9.477460000 5.318075000 14.581955000
    22   1 9.327560000 5.737475000 7.681165000
    23   1 8.116270000 9.623175000 11.699355000
    24   1 8.086490000 10.531675000 8.675365000
    25   1 7.299600000 6.872475000 14.264455000
    26   1 10.414360000 8.775785000 10.381865000
    27   1 5.297040000 7.123245000 9.320025000
    28   1 7.257820000 5.285855000 9.564215000
    29   1 9.720560000 7.757655000 15.440955000
    30   1 10.545760000 14.029475000 14.158855000
    31   1 14.265360000 9.676275000 11.527655000
    32   1 9.001890000 8.350895000 5.061455000
    33   1 10.215060000 14.322175000 7.509945000
    34   1 7.235490000 9.972475000 6.386335000
    35   1 14.013260000 7.451795000 10.164055000
    36   1 12.208760000 9.593975000 7.338285000
    37   1 12.468760000 11.166675000 4.790355000
    38   1 13.616860000 7.184255000 7.515735000
    39   1 12.147660000 12.513975000 7.123905000
    40   1 10.297660000 11.381175000 8.879755000
    41   1 10.003460000 10.694475000 6.154035000
    42   1 8.988450000 13.683175000 9.852955000
    43   1 9.437760000 8.653865000 7.895695000
    44   1 13.821260000 11.800675000 9.183055000
    45   1 12.191960000 9.841875000 10.092355000
    46   1 8.912880000 5.756085000 5.752125000
    47   1 11.581760000 8.747445000 4.559045000
    48   1 7.598670000 15.073775000 7.981275000
    49   1 14.702960000 9.376175000 8.573155000
    50   1 6.072710000 13.569375000 6.360725000
    51   1 11.137460000 7.007075000 6.461975000
    52   1 10.420160000 13.063775000 4.991535000
    53   1 8.231670000 12.474475000 7.364985000
    54   1 14.447360000 11.204475000 6.629915000
    55   1 13.016460000 12.013875000 11.675655000
