ITEM: TIMESTEP
120
ITEM: NUMBER OF ATOMS
55
ITEM: BOX BOUNDS ss ss ss
4.92697 14.6851
5.1108 14.1793
4.20635 15.072
ITEM: ATOMS id type x y z c_pea 
5 1 5.71202 9.57342 8.17219 -3.36543 
10 1 7.61892 7.50589 7.39866 -3.6082 
27 1 5.5097 7.15102 9.16751 -3.15958 
32 1 8.9617 8.20636 4.89193 -3.29754 
46 1 8.86211 5.84311 5.7684 -2.86386 
22 1 9.98055 6.01 8.06577 -3.45612 
43 1 10.0498 8.86509 7.28202 -3.92628 
36 1 12.6516 9.18185 6.48522 -3.56192 
38 1 12.4616 7.23656 8.46974 -3.56404 
47 1 11.4176 8.95891 4.20744 -3.07994 
49 1 14.6841 8.90499 8.13734 -3.12286 
51 1 11.2635 6.87798 5.85421 -3.31841 
34 1 7.62895 10.0986 6.37856 -3.50258 
24 1 8.77065 10.9576 8.75617 -3.88714 
48 1 8.05616 13.5545 9.09323 -3.31087 
50 1 6.32513 12.1042 7.65922 -3.15898 
53 1 8.61718 12.754 6.56192 -3.4494 
33 1 10.5581 14.1783 7.8325 -3.31529 
37 1 12.548 11.4254 4.96934 -3.31953 
39 1 12.9096 13.6311 6.59695 -3.16113 
40 1 11.1369 11.6038 7.33075 -3.86222 
41 1 9.85581 10.8327 5.0169 -3.48423 
44 1 12.9077 12.8895 9.17997 -3.41417 
52 1 10.776 13.4158 5.18834 -3.14866 
54 1 14.0425 11.3447 7.35943 -3.41243 
45 1 12.1162 9.99069 9.2793 -3.95578 
1 1 7.66024 8.73903 9.87719 -3.83008 
28 1 7.86184 6.0191 9.84267 -3.49138 
2 1 9.3767 7.46192 12.3458 -3.90113 
3 1 4.99869 9.24369 10.8588 -3.40187 
4 1 6.22983 6.98138 11.7611 -3.51858 
11 1 8.12795 5.18538 12.6153 -3.30144 
14 1 4.92791 8.82534 13.4327 -3.15547 
21 1 9.29807 6.20127 14.8999 -3.14859 
23 1 7.44218 9.45711 12.4816 -3.76723 
25 1 7.00473 7.27427 14.2725 -3.4103 
29 1 9.13353 8.89663 14.7794 -3.48129 
13 1 10.1216 5.11182 10.6611 -3.29282 
7 1 10.8187 5.11917 13.1741 -3.14993 
9 1 11.4615 7.58725 14.0396 -3.30633 
15 1 12.21 6.48292 11.3463 -3.39166 
18 1 12.1859 9.04852 11.9331 -3.53415 
26 1 10.3041 7.95511 9.91103 -3.80395 
35 1 14.119 8.14168 10.4467 -3.16847 
16 1 6.40545 11.3638 10.1963 -3.53234 
17 1 6.6057 9.89456 15.0709 -3.156 
6 1 5.80891 11.3852 12.9062 -3.2464 
8 1 8.09581 12.6115 11.683 -3.43969 
19 1 8.49857 11.4657 14.0467 -3.41145 
42 1 10.4328 12.7448 10.1055 -3.61357 
31 1 14.5067 10.7868 10.0466 -3.2297 
12 1 9.81367 10.4021 11.4392 -3.94134 
20 1 11.0796 10.4549 13.8887 -3.33865 
30 1 10.472 12.8154 12.8519 -3.16394 
55 1 12.4865 11.6679 11.6168 -3.42853 
