/var/folders/35/zn93tsdx7p13vbrdj0l0gn9r0000gn/T/LAMMPS-9682xh3x/data.lammps (written by ASE) 

55 	 atoms 
1  atom types
0.0 20.000000000  xlo xhi
0.0 20.000000000  ylo yhi
0.0 20.000000000  zlo zhi


Atoms 

     1   1 10.814320273 7.907600000 5.450823909
     2   1 11.502320273 10.476470000 5.833023909
     3   1 9.527980273 11.986170000 4.893223909
     4   1 13.018020273 8.494890000 6.934523909
     5   1 11.314120273 12.954870000 6.777943909
     6   1 8.801190273 9.614480000 5.664223909
     7   1 14.016920273 6.431720000 8.375523909
     8   1 14.727920273 8.894850000 8.868363909
     9   1 8.926910273 14.064670000 6.213633909
    10   1 11.328220273 6.360040000 7.561753909
    11   1 12.725220273 10.974270000 8.414833909
    12   1 12.925820273 13.890270000 8.552483909
    13   1 10.529420273 9.105240000 7.959893909
    14   1 7.179260273 11.986270000 6.252093909
    15   1 8.754330273 7.235060000 7.155443909
    16   1 10.393920273 15.049070000 8.255953909
    17   1 9.224150273 11.480570000 7.752943909
    18   1 12.181920273 5.129600000 9.715803909
    19   1 12.250820273 8.020420000 9.783903909
    20   1 14.265720273 7.091820000 10.997423909
    21   1 9.212240273 4.861930000 8.519313909
    22   1 14.018820273 10.017770000 11.015823909
    23   1 13.150620273 12.604270000 10.800923909
    24   1 7.103410273 9.544000000 7.688913909
    25   1 10.643820273 12.792970000 9.693013909
    26   1 11.698820273 15.138070000 10.513723909
    27   1 7.988430273 13.863970000 8.603903909
    28   1 6.583349727 8.197755273 10.743176091
    29   1 7.294619727 5.856935273 9.194766091
    30   1 10.893379727 7.338055273 11.016676091
    31   1 8.410349727 6.465925273 11.554476091
    32   1 5.272079727 10.473155273 9.581006091
    33   1 7.814599727 10.310995273 8.989026091
    34   1 6.294399727 10.476455273 12.079376091
    35   1 10.554179727 11.844355273 11.883576091
    36   1 9.015959727 9.469215273 11.453776091
    37   1 8.016339727 12.322255273 11.020976091
    38   1 5.508499727 12.938055273 10.749976091
    39   1 7.288539727 14.840155273 11.726176091
    40   1 10.107579727 14.471855273 10.916776091
    41   1 8.102249727 14.648555273 9.279436091
    42   1 7.765599727 8.407595273 13.447676091
    43   1 10.135179727 7.117915273 13.590176091
    44   1 12.850779727 6.662425273 12.669676091
    45   1 12.376779727 7.821295273 14.897876091
    46   1 10.098579727 9.386005273 14.968076091
    47   1 10.902979727 11.988555273 14.573576091
    48   1 8.434799727 11.072255273 13.705676091
    49   1 11.598279727 9.414535273 12.744176091
    50   1 12.814879727 10.298025273 15.106776091
    51   1 14.157479727 9.112625273 13.030676091
    52   1 13.188579727 11.760755273 12.905476091
    53   1 6.467669727 12.898055273 13.256276091
    54   1 9.076899727 13.734755273 13.378776091
    55   1 11.762079727 14.021655273 12.986276091
