ITEM: TIMESTEP
80
ITEM: NUMBER OF ATOMS
55
ITEM: BOX BOUNDS pp pp pp
0 20
0 20
0 20
ITEM: ATOMS id type x y z c_pea 
1 1 10.9754 7.8405 5.55856 -3.15543 
10 1 11.3891 6.39102 7.96056 -3.54012 
15 1 8.916 6.87857 7.02927 -3.43686 
14 1 7.45523 11.3944 7.06407 -3.46892 
24 1 7.25718 8.76947 7.90622 -3.51156 
2 1 11.5754 10.5447 5.80187 -3.43304 
3 1 9.27244 11.9615 5.11122 -3.16168 
6 1 8.89249 9.46538 5.78525 -3.39497 
13 1 10.4904 9.13448 7.90825 -3.79504 
17 1 10.1859 11.8333 7.71017 -3.77335 
4 1 13.036 8.33254 7.09777 -3.37975 
5 1 11.2091 13.4746 5.84076 -3.15272 
9 1 8.69708 13.9589 6.92267 -3.41845 
16 1 10.7463 15.3819 7.78483 -3.23683 
29 1 7.04187 6.28492 8.93038 -3.15261 
21 1 9.2467 5.00225 9.02153 -3.15831 
30 1 9.39465 7.63359 9.83262 -3.86198 
31 1 8.13015 5.95161 11.3954 -3.27503 
18 1 11.2384 5.68863 10.5736 -3.402 
7 1 13.7316 6.39572 9.38423 -3.25912 
20 1 15.0816 7.84978 11.2091 -3.12978 
28 1 6.82443 8.30785 10.6373 -3.54719 
32 1 5.92887 10.7054 9.40948 -3.32867 
33 1 8.55637 10.5144 9.50784 -3.83611 
35 1 11.1994 11.1736 10.623 -3.98052 
36 1 9.15784 9.50871 11.9616 -3.80379 
8 1 14.8267 8.8328 8.85149 -3.15193 
11 1 12.8585 10.7571 8.39754 -3.67698 
19 1 12.2151 8.40045 9.97127 -3.905 
22 1 14.0353 10.286 10.9663 -3.55711 
27 1 7.34562 13.1252 9.14454 -3.61948 
38 1 5.62801 12.73 11.1209 -3.16279 
39 1 7.40006 14.7086 11.4703 -3.38224 
25 1 10.0442 13.5726 9.76359 -3.8015 
37 1 8.51938 12.2249 11.6739 -3.86142 
40 1 9.82772 15.6943 11.4714 -3.22941 
41 1 8.47931 15.6447 9.14043 -3.20006 
26 1 12.0922 15.2654 10.1081 -3.19786 
12 1 12.4692 13.4093 8.13394 -3.38097 
23 1 13.3247 12.8618 10.5375 -3.35931 
42 1 7.59662 7.97478 13.2822 -3.26933 
43 1 10.2034 6.97195 12.7256 -3.58548 
44 1 13.0169 6.75079 12.2104 -3.42418 
45 1 12.2127 7.53072 14.6199 -3.15798 
34 1 6.40087 10.4235 12.1467 -3.4794 
48 1 7.96241 10.7358 14.2194 -3.33301 
46 1 9.88603 8.90814 14.6454 -3.438 
47 1 10.4451 11.5271 13.677 -3.65491 
49 1 11.8104 9.26066 12.5459 -3.73229 
50 1 12.3233 10.0989 15.0935 -3.16554 
51 1 14.2479 9.02021 13.4902 -3.29529 
52 1 13.1226 11.6597 13.0497 -3.41052 
53 1 6.65138 12.929 13.501 -3.15948 
54 1 9.06221 14.012 13.5504 -3.23107 
55 1 11.3739 13.6273 12.2236 -3.53063 
