/tmp/LAMMPS-_g2ejzvk/data.lammps (written by ASE) 

55 	 atoms 
1  atom types
5.045457417042563 14.954542582957437  xlo xhi
4.745339351430157 15.254660648569843  ylo yhi
4.805493109614771 15.19450689038523  zlo zhi


Atoms 

     1   1 12.959563923 12.710814351 12.078336571
     2   1 6.474144672 14.692940754 10.994257005
     3   1 5.524050866 7.093816734 8.274994483
     4   1 6.843939744 9.541053050 10.211392384
     5   1 14.954542583 7.895626490 10.331190862
     6   1 7.964441362 8.797273531 6.135836517
     7   1 14.564603961 8.457373090 9.723566639
     8   1 10.071414665 8.052820646 5.075346359
     9   1 5.758029412 12.032160008 7.113493906
    10   1 9.075171117 13.117042298 11.628568371
    11   1 5.556350156 6.263155419 8.763888916
    12   1 10.478726401 10.127046507 12.144380102
    13   1 14.250206638 8.876306424 6.004502322
    14   1 14.935101924 11.525792193 9.765981462
    15   1 12.084563151 9.210296537 13.459571989
    16   1 5.790476757 7.929278322 7.628648699
    17   1 8.237213557 12.177145643 12.601378194
    18   1 6.154333653 10.223242643 5.864433453
    19   1 9.454417501 15.254660649 6.825686483
    20   1 12.209479045 12.811097865 9.128106910
    21   1 13.319703169 7.773818957 11.045145569
    22   1 9.899615773 10.298589349 5.720440792
    23   1 8.736622462 14.059203198 8.260421840
    24   1 9.611440453 8.826791228 12.677684593
    25   1 5.136704207 13.696020709 11.676973063
    26   1 13.784364747 9.914996841 11.892513523
    27   1 7.479207203 7.840139848 4.805493110
    28   1 8.704059579 11.465983159 11.733428765
    29   1 10.358058468 13.059262916 12.401127286
    30   1 7.540983222 4.745339351 7.858386230
    31   1 6.796404559 9.572161671 9.647410047
    32   1 8.657721795 6.811998005 9.529868660
    33   1 12.313674368 13.277552173 12.256211079
    34   1 7.779026862 11.140148873 14.216634600
    35   1 8.350407199 14.979891864 6.709963869
    36   1 6.462803778 15.135085977 10.277526851
    37   1 11.307126058 8.575885213 7.371102900
    38   1 8.695522107 13.805109563 10.051462473
    39   1 5.045457417 11.341158249 8.938284570
    40   1 9.536672481 9.774647365 9.916632257
    41   1 7.103557283 10.326710552 10.355368294
    42   1 10.567973758 6.549434509 9.555413857
    43   1 8.147542103 14.446950970 10.732055689
    44   1 7.440422250 8.892920939 12.494305210
    45   1 12.544760892 11.129012969 14.180917973
    46   1 8.391934853 9.833180690 5.383517862
    47   1 6.443099230 14.428301301 12.070583520
    48   1 7.730193094 10.177178215 15.194506890
    49   1 5.549368729 12.092361182 7.808316414
    50   1 11.006212010 6.739224521 9.774163380
    51   1 8.090063728 7.156032415 11.878752835
    52   1 6.793554809 5.206342144 8.554597553
    53   1 12.153645891 12.799030150 10.051342772
    54   1 12.870083232 7.449943339 8.706652319
    55   1 13.419891657 7.531782661 9.453086524
