ITEM: TIMESTEP
256
ITEM: NUMBER OF ATOMS
55
ITEM: BOX BOUNDS ss ss ss
4.22344 14.6314
5.28699 15.5428
4.58425 14.9798
ITEM: ATOMS id type x y z c_pea 
3 1 4.22443 7.83802 8.80221 -3.0423 
6 1 8.69669 10.0178 7.13649 -3.67887 
11 1 6.08764 6.02137 9.46685 -3.24744 
16 1 5.7222 6.75779 6.98051 -3.17352 
27 1 7.34462 8.28208 5.51665 -3.38767 
30 1 8.12941 5.80592 6.89426 -3.24023 
32 1 7.91237 7.82157 8.57155 -3.9478 
46 1 9.2457 10.0445 4.58528 -3.1502 
52 1 8.58193 5.28804 9.53039 -3.17565 
18 1 5.6319 9.45669 7.23266 -3.56935 
7 1 13.584 9.44893 8.06997 -3.42296 
8 1 9.89213 7.69766 5.96277 -3.51939 
13 1 11.5648 9.90401 6.07464 -3.45903 
37 1 10.7557 8.83178 8.44726 -3.83735 
42 1 10.5615 6.10386 8.08541 -3.39899 
54 1 12.4709 7.43216 6.76383 -3.16815 
55 1 12.7222 7.17961 9.46887 -3.41631 
31 1 6.94579 10.929 9.04388 -3.75867 
9 1 6.99062 11.2324 5.62861 -3.27858 
19 1 8.52164 15.4668 8.63003 -3.15199 
35 1 7.9643 13.0514 7.43351 -3.66256 
39 1 4.32608 10.4374 9.46977 -3.28621 
49 1 5.26807 12.2817 7.54258 -3.31832 
36 1 6.11684 14.6071 8.7443 -3.18885 
22 1 10.1293 12.1354 6.13653 -3.39177 
23 1 10.6333 13.9798 8.11721 -3.36828 
20 1 12.4191 11.794 7.90217 -3.4718 
38 1 9.98093 11.565 8.96649 -3.84579 
40 1 8.67417 9.59422 10.6194 -3.89127 
4 1 6.01995 8.56567 10.5443 -3.57893 
44 1 7.71284 8.97199 13.1195 -3.42588 
51 1 7.82281 6.85274 11.5303 -3.39523 
50 1 10.2829 7.26592 10.6878 -3.68298 
24 1 9.94259 7.4445 13.4076 -3.23104 
5 1 14.6304 8.67701 10.3723 -3.13634 
15 1 10.4725 9.81174 12.5314 -3.57733 
21 1 12.5025 7.92185 12.1863 -3.46216 
26 1 14.2911 9.82421 12.5656 -3.1192 
48 1 9.59614 9.69256 14.9788 -3.14852 
12 1 12.131 10.0783 10.4118 -3.89133 
45 1 12.267 9.70536 14.3494 -3.22289 
2 1 7.94215 13.1196 10.3001 -3.84806 
10 1 8.92527 14.2364 12.9978 -3.39005 
17 1 6.41959 13.5351 12.5184 -3.19827 
25 1 5.0922 12.8622 10.2694 -3.33299 
34 1 8.23765 11.6044 13.4243 -3.54452 
41 1 6.26078 10.9504 11.7354 -3.53219 
47 1 7.37549 15.5417 11.0512 -3.19187 
14 1 14.3307 11.3488 10.1132 -3.2531 
28 1 10.1842 12.2785 11.567 -3.72344 
43 1 10.121 14.9413 10.6476 -3.46759 
1 1 12.7962 11.8587 12.545 -3.51703 
29 1 10.7344 12.0988 14.301 -3.40929 
33 1 11.604 14.2316 12.7693 -3.15169 
53 1 12.3151 13.2159 10.1852 -3.51946 
