ITEM: TIMESTEP
184
ITEM: NUMBER OF ATOMS
55
ITEM: BOX BOUNDS pp pp pp
0 20
0 20
0 20
ITEM: ATOMS id type x y z c_pea 
27 1 8.42661 7.0625 7.19367 -3.56907 
28 1 11.2663 6.85002 6.94959 -3.30167 
29 1 5.88815 8.5124 7.08666 -3.13616 
30 1 6.52824 11.1232 6.42792 -3.28575 
31 1 7.51992 8.91206 5.24009 -3.13865 
32 1 10.0153 8.31038 5.24662 -3.25181 
33 1 9.28504 10.9166 5.59031 -3.54722 
34 1 10.9464 9.55292 7.55713 -3.77663 
35 1 8.2506 9.76847 7.89434 -3.86805 
37 1 11.9506 10.1039 5.12686 -3.19423 
36 1 13.2846 8.50588 6.91177 -3.15181 
38 1 13.052 11.2495 7.26423 -3.44219 
39 1 10.4268 14.8617 7.08311 -3.13932 
40 1 8.3915 13.2537 6.47645 -3.31448 
41 1 11.2531 12.6845 5.7295 -3.33648 
55 1 12.6741 13.845 7.69614 -3.14464 
21 1 6.06754 6.17329 11.4481 -3.15765 
42 1 6.77543 7.8045 9.47908 -3.61314 
43 1 8.11118 5.51538 9.73913 -3.40132 
22 1 10.6068 5.64401 11.2686 -3.56692 
44 1 10.3824 5.17782 8.6334 -3.11745 
48 1 9.80148 7.79658 9.39024 -3.9088 
15 1 8.51681 7.51689 11.8216 -3.84282 
45 1 12.3905 6.91718 9.42361 -3.49115 
19 1 13.8763 7.81036 11.5274 -3.17223 
26 1 7.98167 10.003 10.6368 -3.82566 
47 1 5.63354 10.2214 9.08584 -3.35222 
17 1 6.01832 11.8003 11.2663 -3.41105 
49 1 10.7675 10.5117 10.167 -3.85426 
25 1 11.2995 8.26885 11.7906 -3.81013 
51 1 13.2101 9.45126 9.41968 -3.55277 
16 1 12.9908 10.5066 11.9458 -3.52893 
46 1 7.25236 12.3185 8.75973 -3.65707 
24 1 6.70419 14.3267 10.6229 -3.13898 
20 1 8.86104 12.539 11.0072 -3.86722 
18 1 9.23825 14.9298 11.7919 -3.2328 
52 1 8.64223 14.6637 8.96699 -3.39219 
53 1 10.2246 12.288 8.20669 -3.93755 
54 1 11.097 14.3352 9.85203 -3.44485 
50 1 12.8614 12.2263 9.77141 -3.4495 
8 1 6.89903 6.4759 13.8255 -3.12112 
23 1 8.21184 4.77467 12.2805 -3.1757 
11 1 9.71118 6.28417 13.89 -3.38956 
13 1 12.334 6.43147 13.3233 -3.16768 
4 1 7.34562 11.0894 13.4499 -3.50691 
10 1 6.15519 8.83831 12.2098 -3.44235 
5 1 10.8659 8.56751 14.6448 -3.46462 
2 1 8.14881 8.67123 14.3208 -3.45371 
1 1 9.38934 10.7897 15.3873 -3.15546 
14 1 9.84482 10.3649 12.7448 -3.81053 
3 1 11.8285 11.1608 14.3222 -3.31579 
7 1 13.3214 8.82312 13.9011 -3.14656 
9 1 7.15503 13.6889 13.0132 -3.15165 
6 1 9.52437 12.9393 13.844 -3.40753 
12 1 11.4303 12.7698 12.042 -3.54023 
