ITEM: TIMESTEP
128
ITEM: NUMBER OF ATOMS
55
ITEM: BOX BOUNDS pp pp pp
0 20
0 20
0 20
ITEM: ATOMS id type x y z c_pea 
6 1 8.53252 7.08432 5.89408 -3.44314 
3 1 9.39932 5.18617 7.40446 -3.1669 
40 1 11.4004 6.13251 5.91265 -3.21855 
34 1 10.687 7.85804 7.63746 -3.83256 
5 1 13.4376 7.13864 7.83507 -3.40545 
19 1 5.98794 10.7006 7.18427 -3.40589 
20 1 6.00674 8.07176 6.42673 -3.16068 
36 1 7.87174 9.69708 5.46915 -3.36988 
9 1 10.4139 8.70132 4.94368 -3.3301 
39 1 10.0086 10.5293 6.94023 -3.78164 
2 1 12.8576 8.34789 5.58086 -3.15268 
50 1 12.1159 10.8991 5.41128 -3.18418 
46 1 12.6695 9.75772 7.88452 -3.67872 
22 1 7.97352 12.3195 6.12476 -3.34195 
17 1 8.75028 14.107 7.92872 -3.35315 
45 1 10.6347 13.0443 6.27148 -3.20932 
54 1 12.9527 12.3753 7.47703 -3.19291 
18 1 7.01309 6.26655 8.08291 -3.28561 
51 1 6.87586 7.06651 10.6296 -3.40306 
16 1 9.35654 6.58737 9.68761 -3.63604 
52 1 9.44491 7.91287 11.9752 -3.7292 
23 1 11.6332 5.43427 8.7903 -3.4008 
12 1 11.4811 5.85046 11.5809 -3.27335 
10 1 13.8596 5.89348 10.0974 -3.12668 
13 1 4.91168 8.72436 11.4648 -3.08123 
47 1 5.49706 8.82238 8.98756 -3.41362 
55 1 7.52033 9.67807 10.9423 -3.86647 
48 1 5.75625 11.5263 10.2785 -3.49776 
11 1 8.04038 11.5134 8.7518 -3.81029 
37 1 8.03814 8.72805 8.1488 -3.87604 
14 1 10.1082 9.74861 9.70554 -3.90801 
49 1 12.0171 8.04172 10.369 -3.85284 
44 1 14.4771 8.64581 9.96959 -3.27411 
15 1 12.793 11.0117 10.2123 -3.70985 
30 1 6.15545 13.2274 8.03655 -3.1457 
38 1 7.43075 13.8896 10.2981 -3.45967 
27 1 10.7456 12.3948 8.92229 -3.73372 
21 1 11.5674 13.192 11.9819 -3.58226 
25 1 10.1651 14.6576 10.1553 -3.29584 
32 1 9.18074 12.0227 11.2419 -3.8185 
24 1 14.0871 12.3992 11.9588 -3.01711 
31 1 12.922 13.7219 9.80147 -3.14795 
7 1 11.7464 7.91176 13.4663 -3.44609 
26 1 9.25831 7.94985 14.5734 -3.03302 
28 1 13.9175 7.11374 12.2518 -3.13237 
35 1 6.91156 8.04547 13.1643 -3.30977 
29 1 5.74376 10.5304 12.9491 -3.14392 
42 1 8.4111 10.2739 13.5512 -3.64815 
4 1 11.0158 10.278 12.2965 -3.84401 
41 1 10.798 9.99599 14.9691 -3.20056 
1 1 13.7006 9.71733 12.4376 -3.4418 
43 1 12.6036 11.6623 13.9918 -3.2096 
33 1 7.10048 12.6641 12.7102 -3.30163 
8 1 9.05726 14.4525 12.4921 -3.14996 
53 1 9.91464 12.4178 13.9918 -3.40044 
