ITEM: TIMESTEP
74
ITEM: NUMBER OF ATOMS
55
ITEM: BOX BOUNDS pp pp pp
0 20
0 20
0 20
ITEM: ATOMS id type x y z c_pea 
43 1 7.9273 4.85959 7.52778 -3.00753 
29 1 11.1472 7.73224 5.51327 -3.23514 
30 1 8.4805 7.16162 6.23918 -3.47551 
31 1 10.4113 5.45702 6.90711 -3.22453 
32 1 12.5613 6.74602 7.54819 -3.29168 
33 1 7.28725 11.6206 5.59336 -3.33899 
34 1 6.559 9.034 6.30191 -3.2787 
47 1 5.61179 11.0716 7.58897 -3.20561 
35 1 9.09017 9.54335 5.26512 -3.47832 
36 1 9.34533 11.4494 7.267 -3.79034 
37 1 10.4219 8.89089 7.7335 -3.82709 
38 1 11.7545 10.4505 5.91208 -3.52288 
39 1 9.8811 11.9406 4.56046 -3.15222 
51 1 13.786 11.7963 7.70759 -3.20905 
52 1 13.2614 9.18957 7.74312 -3.43978 
40 1 8.84681 13.8284 5.94665 -3.1518 
41 1 11.5289 13.0411 6.4106 -3.42213 
1 1 6.98584 7.28583 10.8497 -3.59478 
42 1 6.49542 7.01403 8.19309 -3.42925 
3 1 7.75117 4.88325 10.0954 -3.14776 
2 1 9.78878 6.22278 11.4638 -3.65982 
44 1 9.1548 6.85783 8.90754 -3.76057 
45 1 11.4771 5.39295 9.4641 -3.34198 
4 1 12.4455 5.99419 11.9007 -3.39217 
46 1 13.9908 7.03437 9.81698 -3.22063 
11 1 6.20146 11.785 10.059 -3.39297 
17 1 6.8013 9.81911 11.7146 -3.4788 
48 1 5.36463 9.14786 9.45065 -3.22992 
49 1 7.76815 9.5814 8.60037 -3.86297 
5 1 11.4005 10.917 11.5656 -3.90664 
6 1 9.23797 8.97248 10.8447 -3.84947 
7 1 11.7219 8.15522 10.0394 -3.85569 
8 1 8.97886 11.6433 10.243 -3.91451 
50 1 11.5515 11.3323 8.87146 -3.90983 
9 1 13.854 9.89812 10.2042 -3.52845 
53 1 7.32831 13.1036 8.08315 -3.46011 
10 1 8.20269 14.0539 10.6058 -3.23284 
12 1 11.0808 13.666 10.7154 -3.51324 
54 1 9.88418 13.9579 8.40804 -3.50879 
13 1 13.5904 12.4976 10.5236 -3.42438 
55 1 12.64 13.9997 8.56735 -3.15947 
14 1 7.68614 5.40973 12.7223 -2.96743 
15 1 10.0822 6.09841 14.0839 -3.23877 
18 1 8.28547 7.89101 13.3147 -3.51688 
16 1 12.5462 6.74263 14.4542 -3.12582 
19 1 10.3926 8.59136 15.1842 -3.24602 
20 1 11.392 11.1005 14.3343 -3.4058 
21 1 9.04399 10.4325 13.267 -3.60761 
22 1 11.2124 8.44191 12.7797 -3.82103 
24 1 13.8935 8.16458 12.3303 -3.43544 
23 1 13.0739 9.18539 14.7847 -3.16343 
25 1 13.7962 10.8188 12.8149 -3.36269 
26 1 7.27423 12.3634 12.4093 -3.17147 
27 1 9.77423 12.9735 12.8568 -3.39127 
28 1 12.4841 13.1075 12.9359 -3.17181 
