/var/folders/35/zn93tsdx7p13vbrdj0l0gn9r0000gn/T/LAMMPS-gptgua3f/data.lammps (written by ASE) 

5 	 atoms 
1  atom types
0.0 10.000000000  xlo xhi
0.0 10.000000000  ylo yhi
0.0 10.000000000  zlo zhi


Atoms 

     1   1 5.243952088 3.434560976 4.727579596
     2   1 5.349165527 5.563800976 3.510965736
     3   1 6.285986365 6.039190562 4.329861150
     4   1 5.243952088 6.565439024 6.489034264
     5   1 3.714013635 5.831254309 4.715622791
