ITEM: TIMESTEP
28
ITEM: NUMBER OF ATOMS
5
ITEM: BOX BOUNDS pp pp pp
0 10
0 10
0 10
ITEM: ATOMS id type x y z c_pea 
5 1 3.79753 6.10755 4.66886 -2.76123 
2 1 5.09018 5.05536 2.86687 -2.57482 
3 1 6.39226 6.32926 4.51183 -2.7612 
1 1 5.31233 4.02394 5.08314 -2.76119 
4 1 5.24476 5.91813 6.64237 -2.57482 
