ITEM: TIMESTEP
26
ITEM: NUMBER OF ATOMS
5
ITEM: BOX BOUNDS pp pp pp
0 10
0 10
0 10
ITEM: ATOMS id type x y z c_pea 
1 1 3.25898 3.25898 3.25898 -2.3795 
2 1 4.70009 4.70009 4.70009 -2.16388 
4 1 2.19323 2.19323 2.19323 -2.39918 
3 1 6.14097 6.14097 6.14097 -2.3793 
5 1 7.20674 7.20674 7.20674 -2.39917 
