/tmp/LAMMPS-1ybrk1nc/data.lammps (written by ASE) 

55 	 atoms 
1  atom types
4.4498549999999994 15.550145  xlo xhi
5.017825 14.982175  ylo yhi
5.345255 14.654745  zlo zhi


Atoms 

     1   1 5.852655000 8.486335000 11.607645000
     2   1 6.537165000 5.017825000 10.091015000
     3   1 5.880545000 11.310975000 11.489145000
     4   1 9.950305000 10.135375000 13.159345000
     5   1 13.357945000 6.953615000 8.959145000
     6   1 11.219745000 5.802315000 10.060455000
     7   1 8.405015000 7.836795000 12.887945000
     8   1 11.278045000 10.240875000 6.687805000
     9   1 14.212445000 10.354675000 14.549645000
    10   1 10.763445000 6.492025000 12.966945000
    11   1 14.708945000 8.318795000 13.102845000
    12   1 7.141785000 10.158275000 13.481845000
    13   1 14.274245000 11.565275000 10.252645000
    14   1 11.872845000 11.197275000 14.654745000
    15   1 7.532744456 13.251161972 7.037479780
    16   1 10.667917313 9.688623908 9.586816399
    17   1 8.147915000 9.955975000 11.012945000
    18   1 12.672945000 10.175575000 12.038845000
    19   1 6.566405000 6.042325000 12.512645000
    20   1 12.887545000 7.308035000 11.589345000
    21   1 10.049397430 9.818713806 9.886578530
    22   1 13.359517425 10.247338134 11.344419329
    23   1 8.921935000 5.468075000 11.405945000
    24   1 7.178396539 10.151671669 13.436402749
    25   1 8.607715000 14.982175000 8.533505000
    26   1 5.217905000 7.302375000 9.098785000
    27   1 14.354845000 10.038975000 7.950505000
    28   1 11.330745000 14.599975000 8.337795000
    29   1 6.674885000 5.616645000 7.582175000
    30   1 7.062765000 10.922375000 6.851105000
    31   1 11.636345000 12.940575000 6.007815000
    32   1 8.887265000 6.370025000 6.250895000
    33   1 12.393445000 13.458675000 10.653445000
    34   1 11.548645000 5.673365000 7.229515000
    35   1 12.995845000 8.139345000 6.766255000
    36   1 14.764445000 8.895485000 10.390845000
    37   1 12.223345000 9.441305000 9.295195000
    38   1 10.995645000 7.586855000 5.345255000
    39   1 9.219175000 11.883375000 5.490245000
    40   1 9.665495000 14.565375000 6.157955000
    41   1 13.399322184 12.289220853 12.697929527
    42   1 15.550145000 10.656875000 12.334545000
    43   1 7.856085000 7.419675000 9.825405000
    44   1 7.067765000 8.179855000 7.254935000
    45   1 10.386475000 8.293445000 10.996445000
    46   1 8.305085000 12.330375000 12.265445000
    47   1 13.652745000 12.491175000 12.913945000
    48   1 7.395615000 13.447275000 6.884845000
    49   1 10.060974558 9.631764060 9.858546191
    50   1 8.966665000 9.953675000 8.435245000
    51   1 9.266968566 8.769161075 11.311998713
    52   1 12.097145000 8.527655000 14.033545000
    53   1 10.250781765 9.133141442 9.524477184
    54   1 4.449855000 6.211745000 11.218245000
    55   1 10.942245000 12.765475000 12.808445000
