/tmp/LAMMPS-8n_4al_e/data.lammps (written by ASE) 

55 	 atoms 
1  atom types
5.056925 14.943075  xlo xhi
4.2658249999999995 15.734175  ylo yhi
4.854055000000002 15.145944999999998  zlo zhi


Atoms 

     1   1 7.878625000 10.004275000 4.854055000
     2   1 9.207615000 12.272775000 4.861175000
     3   1 10.285275000 5.003815000 8.068645000
     4   1 10.194975000 7.226765000 6.491635000
     5   1 11.380975000 14.007875000 11.099745000
     6   1 10.426375000 14.428575000 8.669765000
     7   1 10.783575000 12.404475000 7.010215000
     8   1 12.934075000 10.865675000 7.345285000
     9   1 11.399075000 5.359495000 10.470145000
    10   1 12.239075000 7.064895000 8.504465000
    11   1 10.589175000 11.820375000 9.771145000
    12   1 12.407775000 6.289885000 12.816045000
    13   1 14.943075000 9.609875000 11.105945000
    14   1 11.062275000 7.990255000 11.278045000
    15   1 12.795075000 13.087575000 8.963285000
    16   1 12.920775000 9.242995000 12.809345000
    17   1 13.702175000 7.300445000 10.758845000
    18   1 13.081575000 11.812475000 11.489145000
    19   1 12.563075000 8.508465000 6.369335000
    20   1 12.521475000 9.779275000 9.901045000
    21   1 14.443875000 8.756965000 8.437875000
    22   1 10.519975000 9.554075000 8.099255000
    23   1 11.516875000 12.744175000 13.391245000
    24   1 8.313195000 11.193575000 7.394125000
    25   1 6.662925000 12.352575000 5.428735000
    26   1 8.378155000 13.869275000 6.847295000
    27   1 8.345035000 13.360675000 10.336545000
    28   1 6.839075000 13.533175000 12.788645000
    29   1 9.300295000 14.022775000 13.229745000
    30   1 6.519555000 6.846045000 11.912345000
    31   1 5.056925000 12.232375000 11.078345000
    32   1 7.029845000 8.991285000 13.513745000
    33   1 5.617845000 11.263675000 13.518945000
    34   1 5.369175000 7.542385000 9.631485000
    35   1 5.171855000 9.385225000 11.604545000
    36   1 7.457845000 11.094875000 11.483645000
    37   1 5.917545000 14.773875000 10.710345000
    38   1 6.187435000 12.959775000 8.688175000
    39   1 8.458325000 15.734175000 11.307845000
    40   1 6.902635000 11.191375000 6.661655000
    41   1 7.686255000 8.666185000 10.387645000
    42   1 8.288755000 6.528385000 6.591325000
    43   1 7.773095000 6.094875000 9.268045000
    44   1 5.705545000 10.361175000 9.155035000
    45   1 11.378675000 7.980255000 13.820445000
    46   1 8.313085000 11.476175000 14.086745000
    47   1 9.172185000 8.991435000 15.145945000
    48   1 11.081975000 5.534235000 12.473445000
    49   1 8.878735000 6.875885000 13.469345000
    50   1 9.557675000 9.324155000 12.459245000
    51   1 10.875175000 10.775275000 14.455145000
    52   1 10.247775000 11.933275000 11.992245000
    53   1 8.327965000 4.981585000 11.774845000
    54   1 10.069875000 4.265825000 10.180345000
    55   1 9.955675000 7.040595000 10.705445000
