ITEM: TIMESTEP
128
ITEM: NUMBER OF ATOMS
55
ITEM: BOX BOUNDS ss ss ss
4.81474 14.7817
4.23138 14.5896
5.66629 15.3118
ITEM: ATOMS id type x y z c_pea 
34 1 6.2656 8.08701 9.51457 -3.56828 
42 1 8.41121 7.67076 7.77058 -3.6695 
43 1 7.31156 5.54663 9.30431 -3.22836 
40 1 5.90662 8.41051 6.85881 -3.16259 
54 1 9.4627 4.23253 10.3299 -3.15335 
3 1 9.85717 5.50968 8.12145 -3.23797 
4 1 10.4278 7.90654 6.08586 -3.10209 
10 1 11.2728 7.73285 8.57413 -3.67491 
19 1 12.7691 9.16063 6.8959 -3.21351 
9 1 11.7322 5.7003 10.217 -3.42268 
17 1 13.7303 7.80499 10.1473 -3.42121 
1 1 8.17583 9.45352 5.66732 -3.31443 
24 1 7.44369 10.2182 8.18021 -3.67451 
44 1 4.85219 10.3185 8.65052 -3.35976 
2 1 8.30166 12.1602 6.46749 -3.46351 
25 1 5.87754 10.8835 6.0837 -3.15235 
26 1 8.87521 14.375 7.94676 -3.35332 
38 1 6.07147 12.8212 7.8857 -3.39034 
41 1 9.57674 9.64831 9.76675 -3.90699 
27 1 8.151 12.3427 9.57469 -3.7053 
31 1 5.40814 12.2068 10.4632 -3.47777 
37 1 6.80361 14.5885 9.78227 -3.14561 
8 1 12.8667 11.8356 7.3197 -3.37658 
11 1 10.7929 12.28 9.18687 -3.73593 
20 1 12.3512 10.0902 9.51968 -3.74577 
21 1 14.7084 10.1522 8.39092 -3.09827 
22 1 10.3369 10.3669 7.15441 -3.79052 
6 1 11.7616 14.5228 8.7198 -3.16571 
7 1 10.7632 13.1743 6.58955 -3.17565 
15 1 13.6326 12.5082 9.75503 -3.41717 
30 1 6.62838 7.51403 12.02 -3.47991 
49 1 8.35766 6.79091 14.0417 -3.33891 
53 1 7.68727 5.12188 11.9843 -3.17907 
55 1 9.08012 7.02362 10.4993 -3.8847 
32 1 6.74073 9.24841 13.9917 -3.35724 
47 1 9.08931 9.04505 15.3108 -3.15985 
50 1 9.10918 8.91221 12.6413 -3.76899 
12 1 12.9895 6.34861 12.4546 -3.15804 
14 1 11.4486 8.32856 11.4948 -3.82381 
45 1 11.1492 7.50461 14.1895 -3.40924 
48 1 10.3193 5.6394 12.531 -3.48014 
16 1 13.5457 8.83882 12.9833 -3.27757 
33 1 5.70822 11.4557 13.1087 -3.16421 
35 1 4.81573 9.5903 11.3709 -3.22748 
36 1 7.28151 10.3023 11.2493 -3.8471 
46 1 8.49362 11.4196 13.976 -3.58299 
28 1 7.39637 13.2096 12.077 -3.51919 
29 1 9.57749 14.0977 13.1374 -3.11382 
39 1 9.48395 14.5802 10.5192 -3.499 
13 1 14.7807 10.1147 10.9433 -3.16636 
18 1 12.6918 11.2586 12.0405 -3.57685 
51 1 11.1868 10.121 14.0041 -3.50081 
5 1 11.837 13.7743 11.4322 -3.44713 
23 1 11.3928 12.687 13.9629 -3.07999 
52 1 9.94844 11.6757 11.7788 -3.92918 
