/tmp/LAMMPS-4oauq96l/data.lammps (written by ASE) 

55 	 atoms 
1  atom types
5.165199999999998 14.834800000000001  xlo xhi
4.253129999999999 15.746870000000001  ylo yhi
5.7516050000000005 14.248394999999999  zlo zhi


Atoms 

     1   1 7.294920000 6.254090000 7.791025000
     2   1 10.124200000 10.405770000 6.071595000
     3   1 11.002000000 5.203010000 11.242695000
     4   1 11.241600000 10.138970000 8.616535000
     5   1 5.241330000 7.415550000 11.900195000
     6   1 8.278580000 10.296370000 8.238705000
     7   1 5.550900000 10.541370000 8.416865000
     8   1 8.609370000 4.253130000 11.841495000
     9   1 7.045690000 5.872210000 13.224795000
    10   1 6.276360000 8.567440000 6.965735000
    11   1 9.147300000 4.979900000 9.284325000
    12   1 9.173100000 12.751070000 7.089975000
    13   1 8.660160000 8.194810000 6.087985000
    14   1 11.639600000 6.014760000 8.669845000
    15   1 6.673510000 5.554370000 10.436425000
    16   1 13.378900000 8.623510000 8.809655000
    17   1 9.393200000 7.789100000 8.695425000
    18   1 9.729100000 5.801480000 6.786675000
    19   1 5.552460000 10.053670000 11.102995000
    20   1 11.426800000 7.841040000 10.555745000
    21   1 6.756400000 8.201440000 9.658645000
    22   1 8.806430000 6.944770000 11.287395000
    23   1 7.334700000 10.804070000 5.915735000
    24   1 11.385200000 7.926680000 6.826045000
    25   1 12.792200000 9.976070000 6.236655000
    26   1 5.165200000 12.075670000 11.082795000
    27   1 9.234960000 10.900070000 12.752995000
    28   1 7.689670000 8.601490000 12.481595000
    29   1 13.497100000 11.119370000 14.143295000
    30   1 10.048100000 7.256720000 12.560595000
    31   1 13.993600000 9.083490000 12.696495000
    32   1 6.426440000 10.922970000 13.075495000
    33   1 13.558900000 12.329970000 9.846295000
    34   1 11.157500000 11.961970000 14.248395000
    35   1 9.844950000 12.095870000 10.097195000
    36   1 7.432570000 10.720670000 10.606595000
    37   1 11.957600000 10.940270000 11.632495000
    38   1 12.172200000 8.072730000 11.182995000
    39   1 6.807460000 13.124370000 9.106125000
    40   1 11.836200000 12.855770000 7.908805000
    41   1 7.892370000 15.746870000 8.127155000
    42   1 13.639500000 10.803670000 7.544155000
    43   1 10.615400000 15.364670000 7.931445000
    44   1 11.678100000 14.223370000 10.247095000
    45   1 14.049100000 9.660180000 9.984495000
    46   1 11.508000000 10.206000000 8.888845000
    47   1 8.950150000 15.330070000 5.751605000
    48   1 9.071160000 13.253070000 7.626235000
    49   1 14.834800000 11.421570000 11.928195000
    50   1 9.671130000 9.058140000 10.590095000
    51   1 7.589740000 13.095070000 11.859095000
    52   1 12.937400000 13.255870000 12.507595000
    53   1 11.381800000 9.292350000 13.627195000
    54   1 9.015190000 14.695870000 10.175695000
    55   1 10.226900000 13.530170000 12.402095000
