/var/folders/35/zn93tsdx7p13vbrdj0l0gn9r0000gn/T/LAMMPS-t1sn2hbs/data.lammps (written by ASE) 

5 	 atoms 
1  atom types
0.0 10.000000000  xlo xhi
0.0 10.000000000  ylo yhi
0.0 10.000000000  zlo zhi


Atoms 

     1   1 4.202953821 4.341423297 6.162577974
     2   1 3.939075108 3.600320322 3.837422026
     3   1 3.902915995 6.028259961 4.195093059
     4   1 6.097084005 4.630344295 4.391568913
     5   1 5.529844355 6.399679678 5.995130928
