ITEM: TIMESTEP
2
ITEM: NUMBER OF ATOMS
5
ITEM: BOX BOUNDS pp pp pp
0 10
0 10
0 10
ITEM: ATOMS id type x y z c_pea 
2 1 3.93908 3.6003 3.83744 -2.57481 
4 1 6.09709 4.6303 4.39155 -2.7612 
3 1 3.90289 6.02831 4.19507 -2.76121 
1 1 4.20297 4.34141 6.16256 -2.76122 
5 1 5.52984 6.3997 5.99517 -2.57481 
