/tmp/LAMMPS-qlmski_2/data.lammps (written by ASE) 

55 	 atoms 
1  atom types
3.9374762785982114 16.06252372140179  xlo xhi
4.127373288017651 15.872626711982349  ylo yhi
4.935325000000002 15.064674999999998  zlo zhi


Atoms 

     1   1 8.958152391 10.590426712 11.524575000
     2   1 9.664702391 13.319226712 12.191075000
     3   1 13.571502391 11.016526712 12.150975000
     4   1 9.521202391 15.662426712 8.133265000
     5   1 13.319402391 8.792046712 10.787375000
     6   1 13.351202391 10.225306712 6.203645000
     7   1 6.768492391 9.886056712 15.064675000
     8   1 11.514902391 10.934226712 7.961605000
     9   1 11.069902391 14.821626712 10.339775000
    10   1 11.774902391 12.506926712 5.413675000
    11   1 12.923002391 8.524506712 8.139055000
    12   1 10.799702391 8.647136712 9.839575000
    13   1 6.940762391 13.317126712 12.077075000
    14   1 11.453802391 13.854226712 7.747225000
    15   1 9.603802391 12.721426712 9.503075000
    16   1 8.294592391 15.023426712 10.476275000
    17   1 13.127402391 13.140926712 9.806375000
    18   1 8.990902391 9.270536712 13.894975000
    19   1 11.498102391 11.182126712 10.715675000
    20   1 8.972282391 7.715896712 11.688675000
    21   1 14.009102391 10.716426712 9.196475000
    22   1 10.988802391 11.343726712 13.516075000
    23   1 13.753502391 12.544726712 7.253235000
    24   1 8.337072391 11.859126712 14.039975000
    25   1 11.337802391 8.984796712 12.508275000
    26   1 12.322602391 13.354126712 12.298975000
    27   1 8.949702391 12.926626712 7.245725000
    28   1 7.209822391 9.234256712 10.002945000
    29   1 5.083972391 10.990026712 11.084665000
    30   1 5.946312391 8.379436712 12.268275000
    31   1 5.082432391 10.541426712 8.374335000
    32   1 6.628412391 13.656126712 11.217575000
    33   1 6.225452391 8.096156712 7.768905000
    34   1 8.232802391 8.239526712 5.917825000
    35   1 10.654702391 7.999276712 6.655615000
    36   1 5.148522391 10.386506712 13.774975000
    37   1 9.205802391 9.779536712 8.176105000
    38   1 4.824172391 13.010226712 9.329525000
    39   1 5.984852391 12.844926712 6.907325000
    40   1 6.765012391 14.750726712 8.627295000
    41   1 8.633702391 7.077726712 8.304485000
    42   1 7.505832391 14.773426712 5.985355000
    43   1 7.117542391 10.497626712 6.606455000
    44   1 7.904102391 12.397126712 4.935325000
    45   1 7.392632391 11.871926712 9.298685000
    46   1 9.793202391 10.542026712 5.686365000
    47   1 9.045102391 15.872626712 7.804075000
    48   1 4.603182391 8.463496712 9.943345000
    49   1 6.563962391 6.626106712 10.187535000
    50   1 14.091939950 11.160047676 11.978496933
    51   1 3.937476279 13.914234830 5.178732740
    52   1 8.717773034 9.734445716 14.269154075
    53   1 8.769980674 14.645687476 4.935805046
    54   1 16.062523721 10.912344835 13.602580618
    55   1 5.162840104 4.127373288 10.528691288
