/var/folders/35/zn93tsdx7p13vbrdj0l0gn9r0000gn/T/LAMMPS-lo4qjt4z/data.lammps (written by ASE) 

5 	 atoms 
1  atom types
0.0 10.000000000  xlo xhi
0.0 10.000000000  ylo yhi
0.0 10.000000000  zlo zhi


Atoms 

     1   1 5.779896344 4.573923907 3.865830875
     2   1 3.868471087 4.612722912 5.641444569
     3   1 6.131528913 5.813903884 6.134169125
     4   1 4.564882661 6.630564867 4.430056654
     5   1 5.954591447 3.369435133 5.997279024
