ITEM: TIMESTEP
2
ITEM: NUMBER OF ATOMS
5
ITEM: BOX BOUNDS pp pp pp
0 10
0 10
0 10
ITEM: ATOMS id type x y z c_pea 
1 1 5.7799 4.57391 3.8658 -2.7612 
4 1 4.56489 6.6306 4.43006 -2.57482 
2 1 3.86845 4.61271 5.64145 -2.76119 
5 1 5.95461 3.36944 5.9973 -2.57482 
3 1 6.13152 5.8139 6.13417 -2.76124 
