/var/folders/35/zn93tsdx7p13vbrdj0l0gn9r0000gn/T/LAMMPS-4ljge7ve/data.lammps (written by ASE) 

55 	 atoms 
1  atom types
0.0 20.000000000  xlo xhi
0.0 20.000000000  ylo yhi
0.0 20.000000000  zlo zhi


Atoms 

     1   1 6.839224727 5.913226364 10.810854727
     2   1 9.266924727 7.145726364 9.936354727
     3   1 9.371804727 5.122266364 11.617954727
     4   1 11.695734727 6.523426364 11.156054727
     5   1 13.901034727 7.817116364 10.140854727
     6   1 6.995474727 8.555666364 10.782854727
     7   1 8.236984727 11.075356364 10.410154727
     8   1 5.608694727 10.870956364 11.486554727
     9   1 11.298434727 9.586346364 9.731874727
    10   1 13.695834727 10.662556364 10.293754727
    11   1 6.479594727 12.950256364 10.129654727
    12   1 10.850034727 12.299156364 10.303154727
    13   1 8.781634727 13.982656364 11.476054727
    14   1 10.934734727 15.021956364 10.115954727
    15   1 13.114234727 13.390856364 10.214254727
    16   1 8.036794727 7.052606364 12.888854727
    17   1 10.686134727 7.059796364 13.530554727
    18   1 7.415674727 9.856976364 13.189854727
    19   1 9.741634727 8.970386364 11.945954727
    20   1 8.994884727 8.603196364 14.859454727
    21   1 9.761264727 11.590956364 12.695554727
    22   1 11.187134727 9.832006364 14.309854727
    23   1 8.816354727 11.289756364 15.114954727
    24   1 12.552934727 11.605956364 12.487054727
    25   1 12.523234727 8.907516364 12.182254727
    26   1 7.125454727 12.498756364 12.915654727
    27   1 11.368534727 14.003456364 12.524454727
    28   1 9.146504727 13.812656364 14.164254727
    29   1 11.288034727 12.462156364 14.784754727
    30   1 10.770805273 6.893810000 5.286495273
    31   1 8.344235273 7.012770000 6.436455273
    32   1 10.299905273 5.232930000 7.358165273
    33   1 12.750205273 6.423650000 7.214595273
    34   1 7.702465273 11.528780000 5.219515273
    35   1 6.649615273 9.295700000 6.350425273
    36   1 9.378735273 9.378050000 5.533275273
    37   1 9.285015273 11.494380000 7.396305273
    38   1 10.806105273 8.086860000 7.526425273
    39   1 11.840305273 10.461680000 6.662195273
    40   1 10.322705273 11.850280000 4.885045273
    41   1 8.952585273 13.809880000 6.109795273
    42   1 11.495305273 13.189180000 6.932975273
    43   1 6.344685273 7.238200000 8.297655273
    44   1 7.716325273 4.855120000 7.884145273
    45   1 11.988905273 4.867840000 9.372215273
    46   1 14.391305273 6.535760000 9.153065273
    47   1 6.538145273 11.671780000 7.640975273
    48   1 5.698955273 9.805720000 9.207145273
    49   1 8.289635273 9.107970000 8.346225273
    50   1 10.791405273 10.121280000 9.261075273
    51   1 13.014905273 11.794780000 8.850275273
    52   1 13.499505273 9.146200000 8.651945273
    53   1 7.876565273 13.724480000 8.553065273
    54   1 10.116305273 15.144880000 8.242605273
    55   1 12.620605273 14.464880000 9.030225273
