ITEM: TIMESTEP
108
ITEM: NUMBER OF ATOMS
55
ITEM: BOX BOUNDS pp pp pp
0 20
0 20
0 20
ITEM: ATOMS id type x y z c_pea 
30 1 10.8047 7.79776 5.22839 -3.16409 
31 1 8.17132 7.0709 6.34429 -3.41846 
32 1 10.4059 5.52571 6.46912 -3.16091 
38 1 10.3264 7.91666 7.90309 -3.88586 
33 1 12.6426 6.9028 6.91461 -3.26685 
34 1 7.37587 11.7998 5.66542 -3.26648 
35 1 6.2949 9.22858 6.34203 -3.27638 
36 1 8.85772 9.49074 5.60523 -3.48245 
37 1 9.24715 11.4289 7.46809 -3.79202 
39 1 11.5605 10.0917 6.61743 -3.63409 
40 1 10.0866 11.699 4.8695 -3.16533 
41 1 9.1172 13.8717 5.97844 -3.18183 
42 1 11.4981 13.0495 6.72665 -3.44193 
1 1 7.22049 5.59912 10.68 -3.15235 
43 1 6.39978 6.9025 8.35513 -3.35411 
44 1 8.80873 5.69034 8.6375 -3.48376 
2 1 8.9209 7.88872 10.5269 -3.85649 
3 1 9.94517 5.45883 11.2191 -3.43644 
45 1 11.472 5.41731 8.98464 -3.44326 
9 1 11.6868 7.74181 10.484 -3.79605 
4 1 12.7623 5.83129 11.7187 -3.21396 
5 1 14.4117 7.96903 11.004 -3.14071 
46 1 13.8725 6.29725 9.21833 -3.13977 
47 1 6.25591 11.4512 8.09105 -3.55329 
6 1 6.18152 8.02226 10.8144 -3.43374 
8 1 5.72734 10.6834 10.7306 -3.36171 
48 1 5.00851 9.1411 8.65848 -3.17402 
49 1 7.81929 9.19518 8.47667 -3.85284 
7 1 8.29437 11.3783 10.2234 -3.92304 
50 1 10.7372 10.1399 9.45716 -3.89625 
10 1 13.0385 10.2925 10.9311 -3.61314 
51 1 12.9613 11.67 8.50542 -3.4743 
52 1 13.2344 8.90927 8.53047 -3.55056 
11 1 6.14209 13.2138 10.2268 -3.16096 
53 1 7.83041 13.6577 8.23074 -3.49256 
12 1 10.5911 12.8708 9.35885 -3.69883 
13 1 8.58626 14.2571 10.7823 -3.52779 
14 1 11.1065 15.0242 10.968 -3.38254 
54 1 10.1033 15.1434 8.22613 -3.25796 
15 1 12.9906 13.0074 10.9503 -3.46077 
55 1 12.6465 14.4693 8.73441 -3.15367 
16 1 7.99267 6.90023 12.8137 -3.31971 
17 1 10.7064 7.03547 13.2117 -3.45995 
18 1 7.62282 9.6808 12.4232 -3.61705 
19 1 10.4093 9.58766 12.2858 -3.87899 
20 1 8.97065 8.61068 14.5375 -3.17776 
22 1 11.2652 9.80747 14.8371 -3.27634 
23 1 8.9897 11.2861 14.1948 -3.433 
24 1 12.7519 11.3936 13.316 -3.42225 
25 1 12.8934 8.5124 13.0575 -3.41578 
26 1 7.36782 12.5015 12.4879 -3.40082 
21 1 10.4612 12.2507 12.0053 -3.85216 
28 1 9.43129 14.1468 13.4058 -3.2514 
29 1 11.0562 12.5673 14.9484 -3.13327 
27 1 12.1373 14.123 13.2202 -3.1641 
