/var/folders/35/zn93tsdx7p13vbrdj0l0gn9r0000gn/T/LAMMPS-kstihztu/data.lammps (written by ASE) 

5 	 atoms 
1  atom types
0.0 10.000000000  xlo xhi
0.0 10.000000000  ylo yhi
0.0 10.000000000  zlo zhi


Atoms 

     1   1 3.231512908 4.753735749 5.964284304
     2   1 4.446430899 3.843073042 4.035715696
     3   1 5.042598016 6.156926958 5.083463427
     4   1 6.768487092 4.554584617 4.391648902
     5   1 4.446430899 3.843073042 4.035715696
