ITEM: TIMESTEP
2
ITEM: NUMBER OF ATOMS
5
ITEM: BOX BOUNDS pp pp pp
0 10
0 10
0 10
ITEM: ATOMS id type x y z c_pea 
2 1 nan nan nan 0 
5 1 nan nan nan 0 
4 1 6.76848 4.55458 4.39165 -1.61583 
1 1 3.23152 4.75373 5.96428 -1.61582 
3 1 5.0426 6.15692 5.08346 -2.17906 
