/var/folders/35/zn93tsdx7p13vbrdj0l0gn9r0000gn/T/LAMMPS-coynyrwk/data.lammps (written by ASE) 

5 	 atoms 
1  atom types
0.0 10.000000000  xlo xhi
0.0 10.000000000  ylo yhi
0.0 10.000000000  zlo zhi


Atoms 

     1   1 4.603732008 4.735713013 6.911891795
     2   1 3.829609827 6.285233170 5.172797419
     3   1 6.170390173 5.137906207 5.065645807
     4   1 4.732856847 5.356225298 3.088108205
     5   1 4.004908296 3.714766830 4.761552011
