ITEM: TIMESTEP
2
ITEM: NUMBER OF ATOMS
5
ITEM: BOX BOUNDS pp pp pp
0 10
0 10
0 10
ITEM: ATOMS id type x y z c_pea 
5 1 4.00491 3.71477 4.76156 -2.76121 
4 1 4.73286 5.35623 3.08811 -2.57482 
1 1 4.60373 4.73571 6.91188 -2.57482 
2 1 3.82961 6.28523 5.1728 -2.76121 
3 1 6.17039 5.13791 5.06565 -2.76121 
