/var/folders/35/zn93tsdx7p13vbrdj0l0gn9r0000gn/T/LAMMPS-6msn8gie/data.lammps (written by ASE) 

5 	 atoms 
1  atom types
0.0 10.000000000  xlo xhi
0.0 10.000000000  ylo yhi
0.0 10.000000000  zlo zhi


Atoms 

     1   1 5.904178000 6.252834000 6.297867000
     2   1 5.157018000 3.927214000 6.057187000
     3   1 3.963030000 4.263706000 3.702133000
     4   1 6.036970000 3.747166000 4.908923000
     5   1 5.479870000 6.156586000 4.076943000
