ITEM: TIMESTEP
32
ITEM: NUMBER OF ATOMS
5
ITEM: BOX BOUNDS pp pp pp
0 10
0 10
0 10
ITEM: ATOMS id type x y z c_pea 
3 1 4.18172 3.91909 3.7503 -2.57482 
4 1 6.47279 3.99306 4.62826 -2.76122 
5 1 5.05703 6.15401 4.26295 -2.76119 
2 1 4.39487 4.46116 6.13473 -2.76122 
1 1 6.43465 5.82019 6.26682 -2.57482 
