ITEM: TIMESTEP
24
ITEM: NUMBER OF ATOMS
5
ITEM: BOX BOUNDS pp pp pp
0 10
0 10
0 10
ITEM: ATOMS id type x y z c_pea 
1 1 5.2196 3.76591 4.55113 -2.7612 
5 1 4.43636 6.21079 4.08562 -2.7612 
4 1 6.81076 5.59341 4.15998 -2.57482 
2 1 3.39264 4.81299 5.81228 -2.57482 
3 1 5.64937 5.63296 6.32204 -2.76122 
