ITEM: TIMESTEP
140
ITEM: NUMBER OF ATOMS
55
ITEM: BOX BOUNDS pp pp pp
0 20
0 20
0 20
ITEM: ATOMS id type x y z c_pea 
30 1 11.0134 6.01527 6.37775 -3.16963 
31 1 8.51756 6.78762 6.60338 -3.36449 
33 1 13.1648 7.58743 6.80092 -3.4481 
34 1 7.93011 11.8255 5.27532 -3.14414 
35 1 6.21438 8.12102 6.92303 -3.16386 
46 1 6.56498 10.7 7.19064 -3.38121 
29 1 10.6655 8.5449 7.48641 -3.81229 
32 1 11.0143 8.23731 4.95513 -3.2141 
36 1 8.47563 9.26105 5.75346 -3.54108 
37 1 9.51507 11.2846 7.6798 -3.97727 
39 1 10.5081 10.8895 5.12031 -3.40293 
38 1 12.9227 10.0682 5.95352 -3.40398 
51 1 15.0684 9.42364 7.52675 -3.15706 
52 1 7.79619 13.2687 7.56771 -3.3032 
40 1 9.78823 13.4701 5.75638 -3.15126 
41 1 12.0366 12.478 6.7589 -3.52887 
18 1 6.32364 7.01045 11.5333 -3.27923 
42 1 6.92951 6.51569 8.92444 -3.4225 
16 1 10.5857 5.70479 11.7294 -3.60461 
25 1 8.09711 4.9452 10.6401 -3.13296 
43 1 9.74968 6.13282 8.8932 -3.64119 
20 1 8.79886 7.65083 11.045 -3.82413 
27 1 11.558 7.90617 10.1441 -3.88976 
21 1 13.1995 5.84204 11.0936 -3.1953 
44 1 12.3809 5.76899 8.61838 -3.28588 
45 1 14.2563 7.64162 9.32459 -3.4626 
47 1 5.76325 8.91772 9.49568 -3.32371 
26 1 7.12625 11.4053 9.60717 -3.53316 
15 1 7.03869 9.65663 11.7567 -3.51708 
24 1 9.54637 10.4403 10.6513 -3.9698 
48 1 8.25374 8.91251 8.63045 -3.83927 
17 1 12.2404 10.586 11.4818 -3.84525 
49 1 12.658 9.92896 8.65868 -3.77382 
28 1 14.8715 10.2015 10.227 -3.45962 
50 1 14.3521 11.9137 8.01005 -3.36591 
14 1 13.808 8.33885 11.9442 -3.5774 
19 1 11.6822 14.4937 10.7405 -3.26954 
23 1 9.00029 13.3479 10.0112 -3.50527 
53 1 11.4705 12.2304 9.44911 -3.7452 
54 1 10.4521 14.3892 8.09651 -3.36249 
22 1 13.9742 12.6995 10.5812 -3.45927 
55 1 13.1119 14.2546 8.52583 -3.17118 
3 1 10.1561 6.44555 14.4243 -3.21007 
9 1 8.10187 5.61156 13.0422 -3.1415 
6 1 12.5821 6.47768 13.5463 -3.21794 
1 1 10.4524 8.92569 15.2808 -3.17808 
4 1 11.7237 11.109 14.1527 -3.41767 
5 1 8.1461 8.10427 13.7406 -3.41967 
7 1 9.14176 10.5418 13.4851 -3.497 
11 1 10.887 8.49839 12.7245 -3.84615 
2 1 13.0462 8.92299 14.4433 -3.24459 
10 1 14.3432 10.8956 12.9489 -3.26378 
12 1 7.7067 12.2378 12.0636 -3.15156 
13 1 10.3797 12.654 12.2444 -3.55251 
8 1 12.8841 13.1413 12.8477 -3.16649 
