ITEM: TIMESTEP
140
ITEM: NUMBER OF ATOMS
55
ITEM: BOX BOUNDS pp pp pp
0 20
0 20
0 20
ITEM: ATOMS id type x y z c_pea 
27 1 9.15596 6.03858 6.78469 -3.30956 
34 1 11.1841 7.79257 6.47164 -3.44519 
28 1 11.7142 5.47924 7.45845 -3.07618 
31 1 7.42784 8.03955 7.11903 -3.45402 
29 1 6.85135 9.9958 5.35306 -3.07153 
30 1 6.9094 10.6934 7.89059 -3.57603 
32 1 9.61829 9.88784 7.42706 -3.97177 
33 1 9.01147 8.49334 5.06848 -3.29842 
35 1 11.2092 9.97222 4.93373 -3.15017 
38 1 9.00754 11.3795 5.18862 -3.35413 
36 1 12.5917 9.97281 7.228 -3.48196 
37 1 6.81629 12.577 6.04561 -3.00896 
39 1 11.3808 12.243 6.28555 -3.41235 
40 1 8.95842 12.6275 7.71447 -3.70841 
1 1 6.21963 6.80936 11.3011 -3.13735 
44 1 7.42585 6.02258 8.95324 -3.32883 
2 1 8.50493 5.60327 11.3514 -3.39546 
3 1 11.1143 6.61601 11.2102 -3.63491 
43 1 9.96832 4.8711 9.23875 -3.32631 
49 1 9.67575 7.554 8.97624 -3.89166 
45 1 12.6224 5.18638 9.75178 -2.85014 
50 1 12.5338 7.70593 8.9379 -3.6018 
46 1 7.11404 8.72604 9.72144 -3.62448 
9 1 6.00864 11.265 10.4547 -3.32098 
5 1 8.65732 11.0669 10.1951 -3.95521 
47 1 11.2608 11.6232 8.96276 -3.75307 
48 1 11.0424 9.40949 10.5161 -3.84523 
18 1 8.81782 8.32632 11.8107 -3.90314 
4 1 13.2513 8.42643 11.6467 -3.40267 
51 1 13.7554 10.2067 9.62892 -3.56361 
8 1 12.3421 11.7272 11.5151 -3.82299 
52 1 6.47106 13.2528 8.60894 -3.22908 
10 1 7.495 13.564 10.9749 -3.34749 
41 1 11.1503 14.2554 8.06987 -3.29976 
53 1 10.1628 13.495 10.5905 -3.67979 
54 1 8.59849 14.8872 8.93912 -3.02669 
42 1 13.538 12.5433 8.05962 -3.31263 
6 1 14.8154 12.555 10.5131 -3.18507 
55 1 12.8186 14.1194 10.107 -3.32214 
12 1 7.42223 6.97719 13.6734 -3.31092 
13 1 9.85821 5.96652 13.5462 -3.13526 
14 1 9.47006 7.62784 15.4254 -3.02064 
16 1 6.28781 9.25191 12.3098 -3.35804 
23 1 7.37241 11.6615 12.8001 -3.47784 
15 1 11.0845 8.3548 13.3866 -3.62494 
17 1 8.15433 9.52227 14.3183 -3.50533 
19 1 10.6577 10.0791 15.406 -3.30887 
20 1 10.0194 10.9214 12.7381 -3.91176 
24 1 8.90699 11.9975 15.0893 -3.15492 
7 1 14.8869 10.4971 12.0858 -3.15412 
21 1 12.8969 10.2993 13.7859 -3.43939 
11 1 11.9086 14.3016 12.5701 -3.20772 
25 1 9.3245 13.6225 13.1106 -3.34826 
26 1 11.5318 12.5091 14.4217 -3.41604 
22 1 14.0458 12.8195 13.1494 -3.19572 
