ITEM: TIMESTEP
98
ITEM: NUMBER OF ATOMS
55
ITEM: BOX BOUNDS pp pp pp
0 20
0 20
0 20
ITEM: ATOMS id type x y z c_pea 
28 1 8.59242 6.4519 5.70962 -3.15473 
29 1 11.0734 5.76451 6.02526 -3.16931 
38 1 10.1285 7.83597 7.64755 -3.93545 
39 1 9.16962 5.00662 7.82419 -3.39012 
30 1 12.8317 7.36038 7.1753 -3.38254 
31 1 7.53962 11.635 5.39237 -3.15923 
45 1 6.89193 10.4105 7.61588 -3.52621 
32 1 10.6056 8.25994 5.0484 -3.37139 
33 1 8.03071 8.95291 5.62881 -3.40558 
34 1 9.88957 10.8021 4.44936 -3.18158 
49 1 9.66473 10.5816 7.00509 -3.77432 
48 1 12.275 9.78659 6.51069 -3.48546 
1 1 13.5057 11.7667 7.81623 -3.19003 
8 1 6.98698 13.2114 7.6801 -3.3021 
2 1 9.30834 13.2553 6.30172 -3.39722 
35 1 11.7069 12.2077 5.77096 -3.206 
36 1 7.40697 7.3436 8.0652 -3.64572 
37 1 7.32802 4.89345 9.59434 -3.13674 
52 1 6.85612 7.17428 10.9256 -3.45619 
40 1 9.39018 6.61012 10.1175 -3.78921 
41 1 9.97554 4.17266 10.5583 -3.24281 
42 1 11.6416 5.40223 8.68731 -3.53409 
44 1 14.0634 6.46185 9.27484 -3.13431 
55 1 12.3231 5.7048 11.2692 -3.40663 
50 1 14.2504 7.92807 11.2882 -3.13025 
3 1 6.35419 11.6533 9.9819 -3.41004 
19 1 7.15758 9.69658 11.8555 -3.5394 
46 1 5.78091 9.07249 9.5474 -3.16032 
43 1 11.8024 8.00404 9.97574 -3.86876 
47 1 8.60771 9.35548 9.57041 -3.95456 
4 1 10.1173 11.0196 11.569 -3.82369 
5 1 11.4005 10.6045 9.09853 -3.86664 
7 1 12.8252 10.1939 11.4953 -3.62995 
51 1 13.8879 9.31296 8.90978 -3.45321 
9 1 7.40382 14.2411 10.3259 -3.43327 
6 1 8.85892 12.1048 9.10367 -3.82074 
10 1 9.20035 14.9091 8.5176 -3.40459 
11 1 10.114 13.5682 10.9538 -3.66729 
13 1 11.311 13.3204 8.16264 -3.5913 
14 1 11.7883 15.2961 10.0275 -3.14402 
15 1 12.8289 12.7071 10.2641 -3.41253 
12 1 9.43588 16.1973 10.8408 -3.14863 
16 1 7.87399 7.44116 13.4405 -3.32265 
53 1 7.94936 5.04601 12.1108 -3.16345 
54 1 10.2414 5.91304 12.8921 -3.4337 
18 1 12.2931 7.83424 13.0091 -3.4352 
17 1 9.85019 8.47723 12.025 -3.74368 
21 1 10.1589 8.01697 14.68 -3.16495 
22 1 8.71809 10.2052 13.9599 -3.42586 
23 1 11.4006 10.2937 13.8926 -3.42975 
20 1 7.74619 12.3074 12.2144 -3.52365 
24 1 9.88286 12.7569 13.8197 -3.40474 
25 1 8.48714 14.8247 12.8191 -3.17066 
26 1 11.1532 15.139 12.7255 -3.15962 
27 1 12.2372 12.6519 12.7632 -3.30772 
